Title="TOUGHREACT V4.13omp : Aqueous Total & Species Concentrations in mol/kg H2O, Surface & Exchanged Species in mol/kg H2O, Dry blocks in mol/L medium"
Variables= "X(m)"   "Y(m)"   "Z(m)"     "P(bar)"       "T(C)"     "SatGas"     "SatLiq"       "aH2O"    "osmo_P"          "pH"     "IonStr"  "EC(uS_cm)"       "t_ca+2"       "t_mg+2"        "t_na+"        "t_cl-"   "t_sio2(aq)"      "t_hco3-"      "t_so4-2"         "t_k+"      "t_alo2-"         "t_f-"  "t_hfeo2(aq)"       "t_no3-"
Zone T= "0.00000000E+00 sec" I=    4490 J=       1 K=       1 F=Point
  1.99900000000E+00  0.00000000000E+00 -1.53400000000E+00  8.87931E-01   25.422  9.83296E-01  1.67044E-02  0.99978  3.0918E-01  8.3206  1.2682E-02  0.0000E+00  2.5210E-03  6.9960E-04  2.6680E-03  3.3020E-03  1.1750E-03  3.2602E-03  1.2080E-03  2.0470E-04  6.1730E-10  4.5290E-05  1.1550E-12  1.0420E-04
  1.99900000000E+00  0.00000000000E+00 -1.53400000000E+00  8.88163E-01   25.422  3.57564E-02  9.64244E-01  0.99978  3.0918E-01  8.3206  1.2682E-02  0.0000E+00  2.5210E-03  6.9960E-04  2.6680E-03  3.3020E-03  1.1750E-03  3.2602E-03  1.2080E-03  2.0470E-04  6.1730E-10  4.5290E-05  1.1550E-12  1.0420E-04
  2.03900000000E+00  0.00000000000E+00 -1.56500000000E+00  8.87938E-01   25.422  9.83296E-01  1.67044E-02  0.99978  3.0918E-01  8.3206  1.2682E-02  0.0000E+00  2.5210E-03  6.9960E-04  2.6680E-03  3.3020E-03  1.1750E-03  3.2602E-03  1.2080E-03  2.0470E-04  6.1730E-10  4.5290E-05  1.1550E-12  1.0420E-04
  2.03900000000E+00  0.00000000000E+00 -1.56500000000E+00  8.88163E-01   25.422  3.57564E-02  9.64244E-01  0.99978  3.0918E-01  8.3206  1.2682E-02  0.0000E+00  2.5210E-03  6.9960E-04  2.6680E-03  3.3020E-03  1.1750E-03  3.2602E-03  1.2080E-03  2.0470E-04  6.1730E-10  4.5290E-05  1.1550E-12  1.0420E-04
  2.10200000000E+00  0.00000000000E+00 -1.61300000000E+00  8.87949E-01   25.422  9.83296E-01  1.67044E-02  0.99978  3.0918E-01  8.3206  1.2682E-02  0.0000E+00  2.5210E-03  6.9960E-04  2.6680E-03  3.3020E-03  1.1750E-03  3.2602E-03  1.2080E-03  2.0470E-04  6.1730E-10  4.5290E-05  1.1550E-12  1.0420E-04
  2.10200000000E+00  0.00000000000E+00 -1.61300000000E+00  8.88163E-01   25.422  3.57564E-02  9.64244E-01  0.99978  3.0918E-01  8.3206  1.2682E-02  0.0000E+00  2.5210E-03  6.9960E-04  2.6680E-03  3.3020E-03  1.1750E-03  3.2602E-03  1.2080E-03  2.0470E-04  6.1730E-10  4.5290E-05  1.1550E-12  1.0420E-04
  2.18200000000E+00  0.00000000000E+00 -1.67400000000E+00  8.87964E-01   25.422  9.83296E-01  1.67044E-02  0.99978  3.0918E-01  8.3206  1.2682E-02  0.0000E+00  2.5210E-03  6.9960E-04  2.6680E-03  3.3020E-03  1.1750E-03  3.2602E-03  1.2080E-03  2.0470E-04  6.1730E-10  4.5290E-05  1.1550E-12  1.0420E-04
  2.18200000000E+00  0.00000000000E+00 -1.67400000000E+00  8.88163E-01   25.422  3.57564E-02  9.64244E-01  0.99978  3.0918E-01  8.3206  1.2682E-02  0.0000E+00  2.5210E-03  6.9960E-04  2.6680E-03  3.3020E-03  1.1750E-03  3.2602E-03  1.2080E-03  2.0470E-04  6.1730E-10  4.5290E-05  1.1550E-12  1.0420E-04
  2.26100000000E+00  0.00000000000E+00 -1.73500000000E+00  8.87978E-01   25.422  9.83296E-01  1.67044E-02  0.99978  3.0918E-01  8.3206  1.2682E-02  0.0000E+00  2.5210E-03  6.9960E-04  2.6680E-03  3.3020E-03  1.1750E-03  3.2602E-03  1.2080E-03  2.0470E-04  6.1730E-10  4.5290E-05  1.1550E-12  1.0420E-04
  2.26100000000E+00  0.00000000000E+00 -1.73500000000E+00  8.88163E-01   25.422  3.57564E-02  9.64244E-01  0.99978  3.0918E-01  8.3206  1.2682E-02  0.0000E+00  2.5210E-03  6.9960E-04  2.6680E-03  3.3020E-03  1.1750E-03  3.2602E-03  1.2080E-03  2.0470E-04  6.1730E-10  4.5290E-05  1.1550E-12  1.0420E-04
  2.34000000000E+00  0.00000000000E+00 -1.79600000000E+00  8.87992E-01   25.422  9.83296E-01  1.67044E-02  0.99978  3.0918E-01  8.3206  1.2682E-02  0.0000E+00  2.5210E-03  6.9960E-04  2.6680E-03  3.3020E-03  1.1750E-03  3.2602E-03  1.2080E-03  2.0470E-04  6.1730E-10  4.5290E-05  1.1550E-12  1.0420E-04
  2.34000000000E+00  0.00000000000E+00 -1.79600000000E+00  8.88163E-01   25.422  3.57564E-02  9.64244E-01  0.99978  3.0918E-01  8.3206  1.2682E-02  0.0000E+00  2.5210E-03  6.9960E-04  2.6680E-03  3.3020E-03  1.1750E-03  3.2602E-03  1.2080E-03  2.0470E-04  6.1730E-10  4.5290E-05  1.1550E-12  1.0420E-04
  2.45900000000E+00  0.00000000000E+00 -1.88700000000E+00  8.88011E-01   25.422  9.83296E-01  1.67044E-02  0.99978  3.0918E-01  8.3206  1.2682E-02  0.0000E+00  2.5210E-03  6.9960E-04  2.6680E-03  3.3020E-03  1.1750E-03  3.2602E-03  1.2080E-03  2.0470E-04  6.1730E-10  4.5290E-05  1.1550E-12  1.0420E-04
  2.45900000000E+00  0.00000000000E+00 -1.88700000000E+00  8.88163E-01   25.422  3.57564E-02  9.64244E-01  0.99978  3.0918E-01  8.3206  1.2682E-02  0.0000E+00  2.5210E-03  6.9960E-04  2.6680E-03  3.3020E-03  1.1750E-03  3.2602E-03  1.2080E-03  2.0470E-04  6.1730E-10  4.5290E-05  1.1550E-12  1.0420E-04
  2.61800000000E+00  0.00000000000E+00 -2.00900000000E+00  8.88036E-01   25.422  9.83296E-01  1.67044E-02  0.99978  3.0918E-01  8.3206  1.2682E-02  0.0000E+00  2.5210E-03  6.9960E-04  2.6680E-03  3.3020E-03  1.1750E-03  3.2602E-03  1.2080E-03  2.0470E-04  6.1730E-10  4.5290E-05  1.1550E-12  1.0420E-04
  2.61800000000E+00  0.00000000000E+00 -2.00900000000E+00  8.88163E-01   25.422  3.57564E-02  9.64244E-01  0.99978  3.0918E-01  8.3206  1.2682E-02  0.0000E+00  2.5210E-03  6.9960E-04  2.6680E-03  3.3020E-03  1.1750E-03  3.2602E-03  1.2080E-03  2.0470E-04  6.1730E-10  4.5290E-05  1.1550E-12  1.0420E-04
  2.77700000000E+00  0.00000000000E+00 -2.13100000000E+00  8.88058E-01   25.422  9.83296E-01  1.67044E-02  0.99978  3.0918E-01  8.3206  1.2682E-02  0.0000E+00  2.5210E-03  6.9960E-04  2.6680E-03  3.3020E-03  1.1750E-03  3.2602E-03  1.2080E-03  2.0470E-04  6.1730E-10  4.5290E-05  1.1550E-12  1.0420E-04
  2.77700000000E+00  0.00000000000E+00 -2.13100000000E+00  8.88163E-01   25.422  3.57564E-02  9.64244E-01  0.99978  3.0918E-01  8.3206  1.2682E-02  0.0000E+00  2.5210E-03  6.9960E-04  2.6680E-03  3.3020E-03  1.1750E-03  3.2602E-03  1.2080E-03  2.0470E-04  6.1730E-10  4.5290E-05  1.1550E-12  1.0420E-04
  2.97500000000E+00  0.00000000000E+00 -2.28300000000E+00  8.88083E-01   25.422  9.83296E-01  1.67044E-02  0.99978  3.0918E-01  8.3206  1.2682E-02  0.0000E+00  2.5210E-03  6.9960E-04  2.6680E-03  3.3020E-03  1.1750E-03  3.2602E-03  1.2080E-03  2.0470E-04  6.1730E-10  4.5290E-05  1.1550E-12  1.0420E-04
  2.97500000000E+00  0.00000000000E+00 -2.28300000000E+00  8.88163E-01   25.422  3.57564E-02  9.64244E-01  0.99978  3.0918E-01  8.3206  1.2682E-02  0.0000E+00  2.5210E-03  6.9960E-04  2.6680E-03  3.3020E-03  1.1750E-03  3.2602E-03  1.2080E-03  2.0470E-04  6.1730E-10  4.5290E-05  1.1550E-12  1.0420E-04
  3.21300000000E+00  0.00000000000E+00 -2.46500000000E+00  8.88110E-01   25.422  9.83296E-01  1.67044E-02  0.99978  3.0918E-01  8.3206  1.2682E-02  0.0000E+00  2.5210E-03  6.9960E-04  2.6680E-03  3.3020E-03  1.1750E-03  3.2602E-03  1.2080E-03  2.0470E-04  6.1730E-10  4.5290E-05  1.1550E-12  1.0420E-04
  3.21300000000E+00  0.00000000000E+00 -2.46500000000E+00  8.88163E-01   25.422  3.57564E-02  9.64244E-01  0.99978  3.0918E-01  8.3206  1.2682E-02  0.0000E+00  2.5210E-03  6.9960E-04  2.6680E-03  3.3020E-03  1.1750E-03  3.2602E-03  1.2080E-03  2.0470E-04  6.1730E-10  4.5290E-05  1.1550E-12  1.0420E-04
  3.76800000000E+00  0.00000000000E+00 -2.89200000000E+00  8.88160E-01   25.422  9.83296E-01  1.67044E-02  0.99978  3.0918E-01  8.3206  1.2682E-02  0.0000E+00  2.5210E-03  6.9960E-04  2.6680E-03  3.3020E-03  1.1750E-03  3.2602E-03  1.2080E-03  2.0470E-04  6.1730E-10  4.5290E-05  1.1550E-12  1.0420E-04
  3.76800000000E+00  0.00000000000E+00 -2.89200000000E+00  8.88163E-01   25.422  3.57564E-02  9.64244E-01  0.99978  3.0918E-01  8.3206  1.2682E-02  0.0000E+00  2.5210E-03  6.9960E-04  2.6680E-03  3.3020E-03  1.1750E-03  3.2602E-03  1.2080E-03  2.0470E-04  6.1730E-10  4.5290E-05  1.1550E-12  1.0420E-04
  4.16500000000E+00  0.00000000000E+00 -3.19600000000E+00  8.88194E-01   25.422  9.83296E-01  1.67044E-02  0.99978  3.0918E-01  8.3206  1.2682E-02  0.0000E+00  2.5210E-03  6.9960E-04  2.6680E-03  3.3020E-03  1.1750E-03  3.2602E-03  1.2080E-03  2.0470E-04  6.1730E-10  4.5290E-05  1.1550E-12  1.0420E-04
  4.16500000000E+00  0.00000000000E+00 -3.19600000000E+00  8.88163E-01   25.422  3.57564E-02  9.64244E-01  0.99978  3.0918E-01  8.3206  1.2682E-02  0.0000E+00  2.5210E-03  6.9960E-04  2.6680E-03  3.3020E-03  1.1750E-03  3.2602E-03  1.2080E-03  2.0470E-04  6.1730E-10  4.5290E-05  1.1550E-12  1.0420E-04
  4.64100000000E+00  0.00000000000E+00 -3.56100000000E+00  8.88236E-01   25.422  9.83296E-01  1.67044E-02  0.99978  3.0918E-01  8.3206  1.2682E-02  0.0000E+00  2.5210E-03  6.9960E-04  2.6680E-03  3.3020E-03  1.1750E-03  3.2602E-03  1.2080E-03  2.0470E-04  6.1730E-10  4.5290E-05  1.1550E-12  1.0420E-04
  4.64100000000E+00  0.00000000000E+00 -3.56100000000E+00  8.88163E-01   25.422  3.57564E-02  9.64244E-01  0.99978  3.0918E-01  8.3206  1.2682E-02  0.0000E+00  2.5210E-03  6.9960E-04  2.6680E-03  3.3020E-03  1.1750E-03  3.2602E-03  1.2080E-03  2.0470E-04  6.1730E-10  4.5290E-05  1.1550E-12  1.0420E-04
  2.28400000000E+00  0.00000000000E+00 -1.06500000000E+00  8.87743E-01   25.363  9.83292E-01  1.67084E-02  0.99978  3.0912E-01  8.3206  1.2682E-02  0.0000E+00  2.5210E-03  6.9960E-04  2.6680E-03  3.3020E-03  1.1750E-03  3.2602E-03  1.2080E-03  2.0470E-04  6.1730E-10  4.5290E-05  1.1550E-12  1.0420E-04
  2.28400000000E+00  0.00000000000E+00 -1.06500000000E+00  8.87868E-01   25.363  3.55095E-02  9.64491E-01  0.99978  3.0912E-01  8.3206  1.2682E-02  0.0000E+00  2.5210E-03  6.9960E-04  2.6680E-03  3.3020E-03  1.1750E-03  3.2602E-03  1.2080E-03  2.0470E-04  6.1730E-10  4.5290E-05  1.1550E-12  1.0420E-04
  2.32900000000E+00  0.00000000000E+00 -1.08600000000E+00  8.87755E-01   25.364  9.83292E-01  1.67084E-02  0.99978  3.0912E-01  8.3206  1.2682E-02  0.0000E+00  2.5210E-03  6.9960E-04  2.6680E-03  3.3020E-03  1.1750E-03  3.2602E-03  1.2080E-03  2.0470E-04  6.1730E-10  4.5290E-05  1.1550E-12  1.0420E-04
  2.32900000000E+00  0.00000000000E+00 -1.08600000000E+00  8.87857E-01   25.364  3.55095E-02  9.64491E-01  0.99978  3.0912E-01  8.3206  1.2682E-02  0.0000E+00  2.5210E-03  6.9960E-04  2.6680E-03  3.3020E-03  1.1750E-03  3.2602E-03  1.2080E-03  2.0470E-04  6.1730E-10  4.5290E-05  1.1550E-12  1.0420E-04
  2.40200000000E+00  0.00000000000E+00 -1.12000000000E+00  8.87784E-01   25.364  9.83292E-01  1.67084E-02  0.99978  3.0912E-01  8.3206  1.2682E-02  0.0000E+00  2.5210E-03  6.9960E-04  2.6680E-03  3.3020E-03  1.1750E-03  3.2602E-03  1.2080E-03  2.0470E-04  6.1730E-10  4.5290E-05  1.1550E-12  1.0420E-04
  2.40200000000E+00  0.00000000000E+00 -1.12000000000E+00  8.87857E-01   25.364  3.55095E-02  9.64491E-01  0.99978  3.0912E-01  8.3206  1.2682E-02  0.0000E+00  2.5210E-03  6.9960E-04  2.6680E-03  3.3020E-03  1.1750E-03  3.2602E-03  1.2080E-03  2.0470E-04  6.1730E-10  4.5290E-05  1.1550E-12  1.0420E-04
  2.49200000000E+00  0.00000000000E+00 -1.16200000000E+00  8.87816E-01   25.364  9.83292E-01  1.67084E-02  0.99978  3.0912E-01  8.3206  1.2682E-02  0.0000E+00  2.5210E-03  6.9960E-04  2.6680E-03  3.3020E-03  1.1750E-03  3.2602E-03  1.2080E-03  2.0470E-04  6.1730E-10  4.5290E-05  1.1550E-12  1.0420E-04
  2.49200000000E+00  0.00000000000E+00 -1.16200000000E+00  8.87857E-01   25.364  3.55095E-02  9.64491E-01  0.99978  3.0912E-01  8.3206  1.2682E-02  0.0000E+00  2.5210E-03  6.9960E-04  2.6680E-03  3.3020E-03  1.1750E-03  3.2602E-03  1.2080E-03  2.0470E-04  6.1730E-10  4.5290E-05  1.1550E-12  1.0420E-04
  2.58300000000E+00  0.00000000000E+00 -1.20400000000E+00  8.87844E-01   25.364  9.83292E-01  1.67084E-02  0.99978  3.0912E-01  8.3206  1.2682E-02  0.0000E+00  2.5210E-03  6.9960E-04  2.6680E-03  3.3020E-03  1.1750E-03  3.2602E-03  1.2080E-03  2.0470E-04  6.1730E-10  4.5290E-05  1.1550E-12  1.0420E-04
  2.58300000000E+00  0.00000000000E+00 -1.20400000000E+00  8.87857E-01   25.364  3.55095E-02  9.64491E-01  0.99978  3.0912E-01  8.3206  1.2682E-02  0.0000E+00  2.5210E-03  6.9960E-04  2.6680E-03  3.3020E-03  1.1750E-03  3.2602E-03  1.2080E-03  2.0470E-04  6.1730E-10  4.5290E-05  1.1550E-12  1.0420E-04
  2.67400000000E+00  0.00000000000E+00 -1.24700000000E+00  8.87869E-01   25.422  9.83296E-01  1.67044E-02  0.99978  3.0918E-01  8.3206  1.2682E-02  0.0000E+00  2.5210E-03  6.9960E-04  2.6680E-03  3.3020E-03  1.1750E-03  3.2602E-03  1.2080E-03  2.0470E-04  6.1730E-10  4.5290E-05  1.1550E-12  1.0420E-04
  2.67400000000E+00  0.00000000000E+00 -1.24700000000E+00  8.88162E-01   25.422  3.57564E-02  9.64244E-01  0.99978  3.0918E-01  8.3206  1.2682E-02  0.0000E+00  2.5210E-03  6.9960E-04  2.6680E-03  3.3020E-03  1.1750E-03  3.2602E-03  1.2080E-03  2.0470E-04  6.1730E-10  4.5290E-05  1.1550E-12  1.0420E-04
  2.81000000000E+00  0.00000000000E+00 -1.31000000000E+00  8.87902E-01   25.422  9.83296E-01  1.67044E-02  0.99978  3.0918E-01  8.3206  1.2682E-02  0.0000E+00  2.5210E-03  6.9960E-04  2.6680E-03  3.3020E-03  1.1750E-03  3.2602E-03  1.2080E-03  2.0470E-04  6.1730E-10  4.5290E-05  1.1550E-12  1.0420E-04
  2.81000000000E+00  0.00000000000E+00 -1.31000000000E+00  8.88163E-01   25.422  3.57564E-02  9.64244E-01  0.99978  3.0918E-01  8.3206  1.2682E-02  0.0000E+00  2.5210E-03  6.9960E-04  2.6680E-03  3.3020E-03  1.1750E-03  3.2602E-03  1.2080E-03  2.0470E-04  6.1730E-10  4.5290E-05  1.1550E-12  1.0420E-04
  2.99100000000E+00  0.00000000000E+00 -1.39500000000E+00  8.87937E-01   25.422  9.83296E-01  1.67044E-02  0.99978  3.0918E-01  8.3206  1.2682E-02  0.0000E+00  2.5210E-03  6.9960E-04  2.6680E-03  3.3020E-03  1.1750E-03  3.2602E-03  1.2080E-03  2.0470E-04  6.1730E-10  4.5290E-05  1.1550E-12  1.0420E-04
  2.99100000000E+00  0.00000000000E+00 -1.39500000000E+00  8.88163E-01   25.422  3.57564E-02  9.64244E-01  0.99978  3.0918E-01  8.3206  1.2682E-02  0.0000E+00  2.5210E-03  6.9960E-04  2.6680E-03  3.3020E-03  1.1750E-03  3.2602E-03  1.2080E-03  2.0470E-04  6.1730E-10  4.5290E-05  1.1550E-12  1.0420E-04
  3.17200000000E+00  0.00000000000E+00 -1.47900000000E+00  8.87966E-01   25.422  9.83296E-01  1.67044E-02  0.99978  3.0918E-01  8.3206  1.2682E-02  0.0000E+00  2.5210E-03  6.9960E-04  2.6680E-03  3.3020E-03  1.1750E-03  3.2602E-03  1.2080E-03  2.0470E-04  6.1730E-10  4.5290E-05  1.1550E-12  1.0420E-04
  3.17200000000E+00  0.00000000000E+00 -1.47900000000E+00  8.88163E-01   25.422  3.57564E-02  9.64244E-01  0.99978  3.0918E-01  8.3206  1.2682E-02  0.0000E+00  2.5210E-03  6.9960E-04  2.6680E-03  3.3020E-03  1.1750E-03  3.2602E-03  1.2080E-03  2.0470E-04  6.1730E-10  4.5290E-05  1.1550E-12  1.0420E-04
  2.40300000000E+00  0.00000000000E+00 -7.58000000000E-01  8.87712E-01   25.363  9.83292E-01  1.67084E-02  0.99978  3.0912E-01  8.3206  1.2682E-02  0.0000E+00  2.5210E-03  6.9960E-04  2.6680E-03  3.3020E-03  1.1750E-03  3.2602E-03  1.2080E-03  2.0470E-04  6.1730E-10  4.5290E-05  1.1550E-12  1.0420E-04
  2.40300000000E+00  0.00000000000E+00 -7.58000000000E-01  8.87868E-01   25.363  3.55095E-02  9.64491E-01  0.99978  3.0912E-01  8.3206  1.2682E-02  0.0000E+00  2.5210E-03  6.9960E-04  2.6680E-03  3.3020E-03  1.1750E-03  3.2602E-03  1.2080E-03  2.0470E-04  6.1730E-10  4.5290E-05  1.1550E-12  1.0420E-04
  2.45100000000E+00  0.00000000000E+00 -7.73000000000E-01  8.87720E-01   25.364  9.83292E-01  1.67084E-02  0.99978  3.0912E-01  8.3206  1.2682E-02  0.0000E+00  2.5210E-03  6.9960E-04  2.6680E-03  3.3020E-03  1.1750E-03  3.2602E-03  1.2080E-03  2.0470E-04  6.1730E-10  4.5290E-05  1.1550E-12  1.0420E-04
  2.45100000000E+00  0.00000000000E+00 -7.73000000000E-01  8.87857E-01   25.364  3.55095E-02  9.64491E-01  0.99978  3.0912E-01  8.3206  1.2682E-02  0.0000E+00  2.5210E-03  6.9960E-04  2.6680E-03  3.3020E-03  1.1750E-03  3.2602E-03  1.2080E-03  2.0470E-04  6.1730E-10  4.5290E-05  1.1550E-12  1.0420E-04
  2.52700000000E+00  0.00000000000E+00 -7.97000000000E-01  8.87742E-01   25.364  9.83292E-01  1.67084E-02  0.99978  3.0912E-01  8.3206  1.2682E-02  0.0000E+00  2.5210E-03  6.9960E-04  2.6680E-03  3.3020E-03  1.1750E-03  3.2602E-03  1.2080E-03  2.0470E-04  6.1730E-10  4.5290E-05  1.1550E-12  1.0420E-04
  2.52700000000E+00  0.00000000000E+00 -7.97000000000E-01  8.87857E-01   25.364  3.55095E-02  9.64491E-01  0.99978  3.0912E-01  8.3206  1.2682E-02  0.0000E+00  2.5210E-03  6.9960E-04  2.6680E-03  3.3020E-03  1.1750E-03  3.2602E-03  1.2080E-03  2.0470E-04  6.1730E-10  4.5290E-05  1.1550E-12  1.0420E-04
  2.62300000000E+00  0.00000000000E+00 -8.27000000000E-01  8.87767E-01   25.364  9.83292E-01  1.67084E-02  0.99978  3.0912E-01  8.3206  1.2682E-02  0.0000E+00  2.5210E-03  6.9960E-04  2.6680E-03  3.3020E-03  1.1750E-03  3.2602E-03  1.2080E-03  2.0470E-04  6.1730E-10  4.5290E-05  1.1550E-12  1.0420E-04
  2.62300000000E+00  0.00000000000E+00 -8.27000000000E-01  8.87857E-01   25.364  3.55095E-02  9.64491E-01  0.99978  3.0912E-01  8.3206  1.2682E-02  0.0000E+00  2.5210E-03  6.9960E-04  2.6680E-03  3.3020E-03  1.1750E-03  3.2602E-03  1.2080E-03  2.0470E-04  6.1730E-10  4.5290E-05  1.1550E-12  1.0420E-04
  2.71800000000E+00  0.00000000000E+00 -8.57000000000E-01  8.87790E-01   25.364  9.83292E-01  1.67084E-02  0.99978  3.0912E-01  8.3206  1.2682E-02  0.0000E+00  2.5210E-03  6.9960E-04  2.6680E-03  3.3020E-03  1.1750E-03  3.2602E-03  1.2080E-03  2.0470E-04  6.1730E-10  4.5290E-05  1.1550E-12  1.0420E-04
  2.71800000000E+00  0.00000000000E+00 -8.57000000000E-01  8.87857E-01   25.364  3.55095E-02  9.64491E-01  0.99978  3.0912E-01  8.3206  1.2682E-02  0.0000E+00  2.5210E-03  6.9960E-04  2.6680E-03  3.3020E-03  1.1750E-03  3.2602E-03  1.2080E-03  2.0470E-04  6.1730E-10  4.5290E-05  1.1550E-12  1.0420E-04
  2.81300000000E+00  0.00000000000E+00 -8.87000000000E-01  8.87812E-01   25.364  9.83292E-01  1.67084E-02  0.99978  3.0912E-01  8.3206  1.2682E-02  0.0000E+00  2.5210E-03  6.9960E-04  2.6680E-03  3.3020E-03  1.1750E-03  3.2602E-03  1.2080E-03  2.0470E-04  6.1730E-10  4.5290E-05  1.1550E-12  1.0420E-04
  2.81300000000E+00  0.00000000000E+00 -8.87000000000E-01  8.87857E-01   25.364  3.55095E-02  9.64491E-01  0.99978  3.0912E-01  8.3206  1.2682E-02  0.0000E+00  2.5210E-03  6.9960E-04  2.6680E-03  3.3020E-03  1.1750E-03  3.2602E-03  1.2080E-03  2.0470E-04  6.1730E-10  4.5290E-05  1.1550E-12  1.0420E-04
  2.95700000000E+00  0.00000000000E+00 -9.32000000000E-01  8.87840E-01   25.364  9.83292E-01  1.67084E-02  0.99978  3.0912E-01  8.3206  1.2682E-02  0.0000E+00  2.5210E-03  6.9960E-04  2.6680E-03  3.3020E-03  1.1750E-03  3.2602E-03  1.2080E-03  2.0470E-04  6.1730E-10  4.5290E-05  1.1550E-12  1.0420E-04
  2.95700000000E+00  0.00000000000E+00 -9.32000000000E-01  8.87857E-01   25.364  3.55095E-02  9.64491E-01  0.99978  3.0912E-01  8.3206  1.2682E-02  0.0000E+00  2.5210E-03  6.9960E-04  2.6680E-03  3.3020E-03  1.1750E-03  3.2602E-03  1.2080E-03  2.0470E-04  6.1730E-10  4.5290E-05  1.1550E-12  1.0420E-04
  3.14700000000E+00  0.00000000000E+00 -9.92000000000E-01  8.87873E-01   25.364  9.83292E-01  1.67084E-02  0.99978  3.0912E-01  8.3206  1.2682E-02  0.0000E+00  2.5210E-03  6.9960E-04  2.6680E-03  3.3020E-03  1.1750E-03  3.2602E-03  1.2080E-03  2.0470E-04  6.1730E-10  4.5290E-05  1.1550E-12  1.0420E-04
  3.14700000000E+00  0.00000000000E+00 -9.92000000000E-01  8.87857E-01   25.364  3.55095E-02  9.64491E-01  0.99978  3.0912E-01  8.3206  1.2682E-02  0.0000E+00  2.5210E-03  6.9960E-04  2.6680E-03  3.3020E-03  1.1750E-03  3.2602E-03  1.2080E-03  2.0470E-04  6.1730E-10  4.5290E-05  1.1550E-12  1.0420E-04
  3.33800000000E+00  0.00000000000E+00 -1.05200000000E+00  8.87900E-01   25.364  9.83292E-01  1.67084E-02  0.99978  3.0912E-01  8.3206  1.2682E-02  0.0000E+00  2.5210E-03  6.9960E-04  2.6680E-03  3.3020E-03  1.1750E-03  3.2602E-03  1.2080E-03  2.0470E-04  6.1730E-10  4.5290E-05  1.1550E-12  1.0420E-04
  3.33800000000E+00  0.00000000000E+00 -1.05200000000E+00  8.87857E-01   25.364  3.55095E-02  9.64491E-01  0.99978  3.0912E-01  8.3206  1.2682E-02  0.0000E+00  2.5210E-03  6.9960E-04  2.6680E-03  3.3020E-03  1.1750E-03  3.2602E-03  1.2080E-03  2.0470E-04  6.1730E-10  4.5290E-05  1.1550E-12  1.0420E-04
  2.46000000000E+00  0.00000000000E+00 -5.45000000000E-01  8.87691E-01   25.363  9.83292E-01  1.67084E-02  0.99978  3.0912E-01  8.3206  1.2682E-02  0.0000E+00  2.5210E-03  6.9960E-04  2.6680E-03  3.3020E-03  1.1750E-03  3.2602E-03  1.2080E-03  2.0470E-04  6.1730E-10  4.5290E-05  1.1550E-12  1.0420E-04
  2.46000000000E+00  0.00000000000E+00 -5.45000000000E-01  8.87868E-01   25.363  3.55095E-02  9.64491E-01  0.99978  3.0912E-01  8.3206  1.2682E-02  0.0000E+00  2.5210E-03  6.9960E-04  2.6680E-03  3.3020E-03  1.1750E-03  3.2602E-03  1.2080E-03  2.0470E-04  6.1730E-10  4.5290E-05  1.1550E-12  1.0420E-04
  2.50900000000E+00  0.00000000000E+00 -5.56000000000E-01  8.87698E-01   25.364  9.83292E-01  1.67084E-02  0.99978  3.0912E-01  8.3206  1.2682E-02  0.0000E+00  2.5210E-03  6.9960E-04  2.6680E-03  3.3020E-03  1.1750E-03  3.2602E-03  1.2080E-03  2.0470E-04  6.1730E-10  4.5290E-05  1.1550E-12  1.0420E-04
  2.50900000000E+00  0.00000000000E+00 -5.56000000000E-01  8.87857E-01   25.364  3.55095E-02  9.64491E-01  0.99978  3.0912E-01  8.3206  1.2682E-02  0.0000E+00  2.5210E-03  6.9960E-04  2.6680E-03  3.3020E-03  1.1750E-03  3.2602E-03  1.2080E-03  2.0470E-04  6.1730E-10  4.5290E-05  1.1550E-12  1.0420E-04
  2.58700000000E+00  0.00000000000E+00 -5.74000000000E-01  8.87717E-01   25.364  9.83292E-01  1.67084E-02  0.99978  3.0912E-01  8.3206  1.2682E-02  0.0000E+00  2.5210E-03  6.9960E-04  2.6680E-03  3.3020E-03  1.1750E-03  3.2602E-03  1.2080E-03  2.0470E-04  6.1730E-10  4.5290E-05  1.1550E-12  1.0420E-04
  2.58700000000E+00  0.00000000000E+00 -5.74000000000E-01  8.87857E-01   25.364  3.55095E-02  9.64491E-01  0.99978  3.0912E-01  8.3206  1.2682E-02  0.0000E+00  2.5210E-03  6.9960E-04  2.6680E-03  3.3020E-03  1.1750E-03  3.2602E-03  1.2080E-03  2.0470E-04  6.1730E-10  4.5290E-05  1.1550E-12  1.0420E-04
  2.68500000000E+00  0.00000000000E+00 -5.95000000000E-01  8.87740E-01   25.364  9.83292E-01  1.67084E-02  0.99978  3.0912E-01  8.3206  1.2682E-02  0.0000E+00  2.5210E-03  6.9960E-04  2.6680E-03  3.3020E-03  1.1750E-03  3.2602E-03  1.2080E-03  2.0470E-04  6.1730E-10  4.5290E-05  1.1550E-12  1.0420E-04
  2.68500000000E+00  0.00000000000E+00 -5.95000000000E-01  8.87857E-01   25.364  3.55095E-02  9.64491E-01  0.99978  3.0912E-01  8.3206  1.2682E-02  0.0000E+00  2.5210E-03  6.9960E-04  2.6680E-03  3.3020E-03  1.1750E-03  3.2602E-03  1.2080E-03  2.0470E-04  6.1730E-10  4.5290E-05  1.1550E-12  1.0420E-04
  2.78200000000E+00  0.00000000000E+00 -6.17000000000E-01  8.87762E-01   25.364  9.83292E-01  1.67084E-02  0.99978  3.0912E-01  8.3206  1.2682E-02  0.0000E+00  2.5210E-03  6.9960E-04  2.6680E-03  3.3020E-03  1.1750E-03  3.2602E-03  1.2080E-03  2.0470E-04  6.1730E-10  4.5290E-05  1.1550E-12  1.0420E-04
  2.78200000000E+00  0.00000000000E+00 -6.17000000000E-01  8.87857E-01   25.364  3.55095E-02  9.64491E-01  0.99978  3.0912E-01  8.3206  1.2682E-02  0.0000E+00  2.5210E-03  6.9960E-04  2.6680E-03  3.3020E-03  1.1750E-03  3.2602E-03  1.2080E-03  2.0470E-04  6.1730E-10  4.5290E-05  1.1550E-12  1.0420E-04
  2.88000000000E+00  0.00000000000E+00 -6.38000000000E-01  8.87781E-01   25.364  9.83292E-01  1.67084E-02  0.99978  3.0912E-01  8.3206  1.2682E-02  0.0000E+00  2.5210E-03  6.9960E-04  2.6680E-03  3.3020E-03  1.1750E-03  3.2602E-03  1.2080E-03  2.0470E-04  6.1730E-10  4.5290E-05  1.1550E-12  1.0420E-04
  2.88000000000E+00  0.00000000000E+00 -6.38000000000E-01  8.87857E-01   25.364  3.55095E-02  9.64491E-01  0.99978  3.0912E-01  8.3206  1.2682E-02  0.0000E+00  2.5210E-03  6.9960E-04  2.6680E-03  3.3020E-03  1.1750E-03  3.2602E-03  1.2080E-03  2.0470E-04  6.1730E-10  4.5290E-05  1.1550E-12  1.0420E-04
  3.02700000000E+00  0.00000000000E+00 -6.71000000000E-01  8.87807E-01   25.364  9.83292E-01  1.67084E-02  0.99978  3.0912E-01  8.3206  1.2682E-02  0.0000E+00  2.5210E-03  6.9960E-04  2.6680E-03  3.3020E-03  1.1750E-03  3.2602E-03  1.2080E-03  2.0470E-04  6.1730E-10  4.5290E-05  1.1550E-12  1.0420E-04
  3.02700000000E+00  0.00000000000E+00 -6.71000000000E-01  8.87857E-01   25.364  3.55095E-02  9.64491E-01  0.99978  3.0912E-01  8.3206  1.2682E-02  0.0000E+00  2.5210E-03  6.9960E-04  2.6680E-03  3.3020E-03  1.1750E-03  3.2602E-03  1.2080E-03  2.0470E-04  6.1730E-10  4.5290E-05  1.1550E-12  1.0420E-04
  3.22200000000E+00  0.00000000000E+00 -7.14000000000E-01  8.87837E-01   25.364  9.83292E-01  1.67084E-02  0.99978  3.0912E-01  8.3206  1.2682E-02  0.0000E+00  2.5210E-03  6.9960E-04  2.6680E-03  3.3020E-03  1.1750E-03  3.2602E-03  1.2080E-03  2.0470E-04  6.1730E-10  4.5290E-05  1.1550E-12  1.0420E-04
  3.22200000000E+00  0.00000000000E+00 -7.14000000000E-01  8.87857E-01   25.364  3.55095E-02  9.64491E-01  0.99978  3.0912E-01  8.3206  1.2682E-02  0.0000E+00  2.5210E-03  6.9960E-04  2.6680E-03  3.3020E-03  1.1750E-03  3.2602E-03  1.2080E-03  2.0470E-04  6.1730E-10  4.5290E-05  1.1550E-12  1.0420E-04
  3.41700000000E+00  0.00000000000E+00 -7.58000000000E-01  8.87863E-01   25.364  9.83292E-01  1.67084E-02  0.99978  3.0912E-01  8.3206  1.2682E-02  0.0000E+00  2.5210E-03  6.9960E-04  2.6680E-03  3.3020E-03  1.1750E-03  3.2602E-03  1.2080E-03  2.0470E-04  6.1730E-10  4.5290E-05  1.1550E-12  1.0420E-04
  3.41700000000E+00  0.00000000000E+00 -7.58000000000E-01  8.87857E-01   25.364  3.55095E-02  9.64491E-01  0.99978  3.0912E-01  8.3206  1.2682E-02  0.0000E+00  2.5210E-03  6.9960E-04  2.6680E-03  3.3020E-03  1.1750E-03  3.2602E-03  1.2080E-03  2.0470E-04  6.1730E-10  4.5290E-05  1.1550E-12  1.0420E-04
  2.49800000000E+00  0.00000000000E+00 -3.29000000000E-01  8.87669E-01   25.363  9.83292E-01  1.67084E-02  0.99978  3.0912E-01  8.3206  1.2682E-02  0.0000E+00  2.5210E-03  6.9960E-04  2.6680E-03  3.3020E-03  1.1750E-03  3.2602E-03  1.2080E-03  2.0470E-04  6.1730E-10  4.5290E-05  1.1550E-12  1.0420E-04
  2.49800000000E+00  0.00000000000E+00 -3.29000000000E-01  8.87868E-01   25.363  3.55095E-02  9.64491E-01  0.99978  3.0912E-01  8.3206  1.2682E-02  0.0000E+00  2.5210E-03  6.9960E-04  2.6680E-03  3.3020E-03  1.1750E-03  3.2602E-03  1.2080E-03  2.0470E-04  6.1730E-10  4.5290E-05  1.1550E-12  1.0420E-04
  2.54800000000E+00  0.00000000000E+00 -3.35000000000E-01  8.87676E-01   25.364  9.83292E-01  1.67084E-02  0.99978  3.0912E-01  8.3206  1.2682E-02  0.0000E+00  2.5210E-03  6.9960E-04  2.6680E-03  3.3020E-03  1.1750E-03  3.2602E-03  1.2080E-03  2.0470E-04  6.1730E-10  4.5290E-05  1.1550E-12  1.0420E-04
  2.54800000000E+00  0.00000000000E+00 -3.35000000000E-01  8.87857E-01   25.364  3.55095E-02  9.64491E-01  0.99978  3.0912E-01  8.3206  1.2682E-02  0.0000E+00  2.5210E-03  6.9960E-04  2.6680E-03  3.3020E-03  1.1750E-03  3.2602E-03  1.2080E-03  2.0470E-04  6.1730E-10  4.5290E-05  1.1550E-12  1.0420E-04
  2.62700000000E+00  0.00000000000E+00 -3.46000000000E-01  8.87695E-01   25.364  9.83292E-01  1.67084E-02  0.99978  3.0912E-01  8.3206  1.2682E-02  0.0000E+00  2.5210E-03  6.9960E-04  2.6680E-03  3.3020E-03  1.1750E-03  3.2602E-03  1.2080E-03  2.0470E-04  6.1730E-10  4.5290E-05  1.1550E-12  1.0420E-04
  2.62700000000E+00  0.00000000000E+00 -3.46000000000E-01  8.87857E-01   25.364  3.55095E-02  9.64491E-01  0.99978  3.0912E-01  8.3206  1.2682E-02  0.0000E+00  2.5210E-03  6.9960E-04  2.6680E-03  3.3020E-03  1.1750E-03  3.2602E-03  1.2080E-03  2.0470E-04  6.1730E-10  4.5290E-05  1.1550E-12  1.0420E-04
  2.72600000000E+00  0.00000000000E+00 -3.59000000000E-01  8.87716E-01   25.364  9.83292E-01  1.67084E-02  0.99978  3.0912E-01  8.3206  1.2682E-02  0.0000E+00  2.5210E-03  6.9960E-04  2.6680E-03  3.3020E-03  1.1750E-03  3.2602E-03  1.2080E-03  2.0470E-04  6.1730E-10  4.5290E-05  1.1550E-12  1.0420E-04
  2.72600000000E+00  0.00000000000E+00 -3.59000000000E-01  8.87857E-01   25.364  3.55095E-02  9.64491E-01  0.99978  3.0912E-01  8.3206  1.2682E-02  0.0000E+00  2.5210E-03  6.9960E-04  2.6680E-03  3.3020E-03  1.1750E-03  3.2602E-03  1.2080E-03  2.0470E-04  6.1730E-10  4.5290E-05  1.1550E-12  1.0420E-04
  2.82600000000E+00  0.00000000000E+00 -3.72000000000E-01  8.87736E-01   25.364  9.83292E-01  1.67084E-02  0.99978  3.0912E-01  8.3206  1.2682E-02  0.0000E+00  2.5210E-03  6.9960E-04  2.6680E-03  3.3020E-03  1.1750E-03  3.2602E-03  1.2080E-03  2.0470E-04  6.1730E-10  4.5290E-05  1.1550E-12  1.0420E-04
  2.82600000000E+00  0.00000000000E+00 -3.72000000000E-01  8.87857E-01   25.364  3.55095E-02  9.64491E-01  0.99978  3.0912E-01  8.3206  1.2682E-02  0.0000E+00  2.5210E-03  6.9960E-04  2.6680E-03  3.3020E-03  1.1750E-03  3.2602E-03  1.2080E-03  2.0470E-04  6.1730E-10  4.5290E-05  1.1550E-12  1.0420E-04
  2.92500000000E+00  0.00000000000E+00 -3.85000000000E-01  8.87754E-01   25.364  9.83292E-01  1.67084E-02  0.99978  3.0912E-01  8.3206  1.2682E-02  0.0000E+00  2.5210E-03  6.9960E-04  2.6680E-03  3.3020E-03  1.1750E-03  3.2602E-03  1.2080E-03  2.0470E-04  6.1730E-10  4.5290E-05  1.1550E-12  1.0420E-04
  2.92500000000E+00  0.00000000000E+00 -3.85000000000E-01  8.87857E-01   25.364  3.55095E-02  9.64491E-01  0.99978  3.0912E-01  8.3206  1.2682E-02  0.0000E+00  2.5210E-03  6.9960E-04  2.6680E-03  3.3020E-03  1.1750E-03  3.2602E-03  1.2080E-03  2.0470E-04  6.1730E-10  4.5290E-05  1.1550E-12  1.0420E-04
  3.07300000000E+00  0.00000000000E+00 -4.05000000000E-01  8.87778E-01   25.364  9.83292E-01  1.67084E-02  0.99978  3.0912E-01  8.3206  1.2682E-02  0.0000E+00  2.5210E-03  6.9960E-04  2.6680E-03  3.3020E-03  1.1750E-03  3.2602E-03  1.2080E-03  2.0470E-04  6.1730E-10  4.5290E-05  1.1550E-12  1.0420E-04
  3.07300000000E+00  0.00000000000E+00 -4.05000000000E-01  8.87857E-01   25.364  3.55095E-02  9.64491E-01  0.99978  3.0912E-01  8.3206  1.2682E-02  0.0000E+00  2.5210E-03  6.9960E-04  2.6680E-03  3.3020E-03  1.1750E-03  3.2602E-03  1.2080E-03  2.0470E-04  6.1730E-10  4.5290E-05  1.1550E-12  1.0420E-04
  3.27200000000E+00  0.00000000000E+00 -4.31000000000E-01  8.87807E-01   25.364  9.83292E-01  1.67084E-02  0.99978  3.0912E-01  8.3206  1.2682E-02  0.0000E+00  2.5210E-03  6.9960E-04  2.6680E-03  3.3020E-03  1.1750E-03  3.2602E-03  1.2080E-03  2.0470E-04  6.1730E-10  4.5290E-05  1.1550E-12  1.0420E-04