Title="TOUGHREACT V4.13omp : flowvector.tec: Liq & Gas Fluxes (kg/s/m^2), Pore Velocities (m/s), & Heat Fluxes (J/s/m2)"
Variables= "X(m)"     "Y(m)"      "Z(m)"     "FluxLiq"   "FluxLiq_X"   "FluxLiq_Y"   "FluxLiq_Z"   "PorVelLiq"  "PorVelLiqX"  "PorVelLiqY"  "PorVelLiqZ"     "FluxGas"   "FluxGas_X"   "FluxGas_Y"   "FluxGas_Z"   "PorVelGas"  "PorVelGasX"  "PorVelGasY"  "PorVelGasZ"    "HeatFlux"  "HeatFlux_X"  "HeatFlux_Y"  "HeatFlux_Z"    "VapDFlux"  "VapDFlux_X"  "VapDFlux_Y"  "VapDFlux_Z"
Zone T= "1.00000000E+01 sec" I=    4490 J=       1 K=       1 F=Point
  1.99900000000E+00  0.00000000000E+00 -1.53400000000E+00   4.094028E-08 -1.476698E-08  0.000000E+00 -3.818433E-08  2.598719E-09 -8.881647E-10  0.000000E+00 -2.442234E-09  5.596637E-07  2.583657E-07  0.000000E+00  4.964580E-07  6.574352E-07  3.025907E-07  0.000000E+00  5.836608E-07  8.571686E-02  4.000218E-02  0.000000E+00  7.581032E-02  9.074662E-12  4.821757E-12  0.000000E+00  7.687662E-12
  1.99900000000E+00  0.00000000000E+00 -1.53400000000E+00   3.630682E-10 -1.015022E-10  0.000000E+00 -3.485912E-10  2.933936E-12 -8.201341E-13  0.000000E+00 -2.816977E-12  7.747462E-17  4.762772E-17  0.000000E+00  6.110579E-17  1.647684E-14  1.012910E-14  0.000000E+00  1.299568E-14  1.108472E-01  5.753910E-02  0.000000E+00  9.474365E-02  1.739905E-14  9.031015E-15  0.000000E+00  1.487171E-14
  2.03900000000E+00  0.00000000000E+00 -1.56500000000E+00   3.228344E-08  3.794841E-10  0.000000E+00 -3.228121E-08  2.280211E-09  2.695297E-11  0.000000E+00 -2.280051E-09  3.470860E-07  6.930735E-08  0.000000E+00  3.400959E-07  4.064975E-07  8.116568E-08  0.000000E+00  3.983119E-07  5.251375E-02  1.122057E-02  0.000000E+00  5.130100E-02  8.070981E-12  4.493942E-12  0.000000E+00  6.704120E-12
  2.03900000000E+00  0.00000000000E+00 -1.56500000000E+00   4.272928E-10  1.798404E-12  0.000000E+00 -4.272890E-10  3.453045E-12  1.474328E-14  0.000000E+00 -3.453014E-12  8.037347E-17  5.834280E-17  0.000000E+00  5.528120E-17  1.709346E-14  1.240789E-14  0.000000E+00  1.175716E-14  1.072369E-01  5.550684E-02  0.000000E+00  9.175366E-02  1.672950E-14  8.657220E-15  0.000000E+00  1.431533E-14
  2.10200000000E+00  0.00000000000E+00 -1.61300000000E+00   3.213705E-08  3.311227E-10  0.000000E+00 -3.213534E-08  2.269875E-09  2.351687E-11  0.000000E+00 -2.269753E-09  3.061083E-07  3.737213E-08  0.000000E+00  3.038184E-07  3.584997E-07  4.376248E-08  0.000000E+00  3.558186E-07  4.588630E-02  6.079918E-03  0.000000E+00  4.548172E-02  7.888839E-12  4.430616E-12  0.000000E+00  6.527130E-12
  2.10200000000E+00  0.00000000000E+00 -1.61300000000E+00   4.250954E-10  1.199347E-12  0.000000E+00 -4.250937E-10  3.435287E-12  9.902020E-15  0.000000E+00 -3.435273E-12  7.729370E-17  5.684047E-17  0.000000E+00  5.237820E-17  1.643847E-14  1.208838E-14  0.000000E+00  1.113977E-14  1.039922E-01  5.407784E-02  0.000000E+00  8.882552E-02  1.622364E-14  8.433446E-15  0.000000E+00  1.385942E-14
  2.18200000000E+00  0.00000000000E+00 -1.67400000000E+00   3.227874E-08  3.717693E-10  0.000000E+00 -3.227660E-08  2.279883E-09  2.638799E-11  0.000000E+00 -2.279731E-09  2.654113E-07  8.921999E-09  0.000000E+00  2.652613E-07  3.108319E-07  1.044230E-08  0.000000E+00  3.106565E-07  3.929419E-02  1.508661E-03  0.000000E+00  3.926522E-02  7.657498E-12  4.301986E-12  0.000000E+00  6.334840E-12
  2.18200000000E+00  0.00000000000E+00 -1.67400000000E+00   4.266953E-10  1.907741E-12  0.000000E+00 -4.266910E-10  3.448218E-12  1.562656E-14  0.000000E+00 -3.448182E-12  7.336597E-17  5.464438E-17  0.000000E+00  4.895465E-17  1.560314E-14  1.162133E-14  0.000000E+00  1.041167E-14  1.002049E-01  5.191832E-02  0.000000E+00  8.570591E-02  1.563302E-14  8.096658E-15  0.000000E+00  1.337294E-14
  2.26100000000E+00  0.00000000000E+00 -1.73500000000E+00   3.237273E-08  3.895535E-10  0.000000E+00 -3.237039E-08  2.286523E-09  2.764431E-11  0.000000E+00 -2.286356E-09  2.311783E-07 -1.008882E-08  0.000000E+00  2.309581E-07  2.707364E-07 -1.182162E-08  0.000000E+00  2.704782E-07  3.377323E-02 -1.547110E-03  0.000000E+00  3.373778E-02  7.428830E-12  4.185646E-12  0.000000E+00  6.137417E-12
  2.26100000000E+00  0.00000000000E+00 -1.73500000000E+00   4.276881E-10  2.272610E-12  0.000000E+00 -4.276821E-10  3.456242E-12  1.857541E-14  0.000000E+00 -3.456192E-12  6.970277E-17  5.274650E-17  0.000000E+00  4.556625E-17  1.482407E-14  1.121770E-14  0.000000E+00  9.691041E-15  9.660732E-02  5.010284E-02  0.000000E+00  8.259952E-02  1.507289E-14  7.814079E-15  0.000000E+00  1.288922E-14
  2.34000000000E+00  0.00000000000E+00 -1.79600000000E+00   3.227568E-08  3.615178E-10  0.000000E+00 -3.227365E-08  2.279875E-09  2.553672E-11  0.000000E+00 -2.279732E-09  1.997545E-07 -2.260742E-08  0.000000E+00  1.984711E-07  2.339426E-07 -2.647426E-08  0.000000E+00  2.324398E-07  2.869544E-02 -3.596411E-03  0.000000E+00  2.846918E-02  6.693871E-13  4.531203E-14  0.000000E+00 -6.678517E-13
  2.34000000000E+00  0.00000000000E+00 -1.79600000000E+00   4.216905E-10  4.772894E-12  0.000000E+00 -4.216635E-10  3.408112E-12  3.857462E-14  0.000000E+00 -3.407893E-12  4.041986E-17  4.968803E-19  0.000000E+00 -4.041680E-17  8.595796E-15  1.056682E-16  0.000000E+00 -8.595147E-15  2.769091E-05  2.358526E-05  0.000000E+00  1.450939E-05  9.306928E-18  3.370675E-18  0.000000E+00  8.675106E-18
  2.45900000000E+00  0.00000000000E+00 -1.88700000000E+00   3.223394E-08  3.461928E-10  0.000000E+00 -3.223208E-08  2.276927E-09  2.445408E-11  0.000000E+00 -2.276796E-09  1.626970E-07 -3.346768E-08  0.000000E+00  1.592175E-07  1.905376E-07 -3.919298E-08  0.000000E+00  1.864631E-07  2.279747E-02 -5.344056E-03  0.000000E+00  2.216226E-02  6.047850E-13  6.300626E-14  0.000000E+00 -6.014941E-13
  2.45900000000E+00  0.00000000000E+00 -1.88700000000E+00   4.210530E-10  4.598201E-12  0.000000E+00 -4.210279E-10  3.402960E-12  3.716276E-14  0.000000E+00 -3.402757E-12  4.045217E-17  4.445316E-19  0.000000E+00 -4.044972E-17  8.602668E-15  9.453531E-17  0.000000E+00 -8.602148E-15  4.205337E-05  2.134092E-06  0.000000E+00 -4.199919E-05  4.787577E-19  2.404569E-19  0.000000E+00  4.139920E-19
  2.61800000000E+00  0.00000000000E+00 -2.00900000000E+00   3.227622E-08  3.545417E-10  0.000000E+00 -3.227427E-08  2.279914E-09  2.504394E-11  0.000000E+00 -2.279776E-09  1.258733E-07 -3.981195E-08  0.000000E+00  1.194115E-07  1.474083E-07 -4.662210E-08  0.000000E+00  1.398413E-07  1.699393E-02 -6.363082E-03  0.000000E+00  1.575769E-02  5.363508E-13  7.434489E-14  0.000000E+00 -5.311732E-13
  2.61800000000E+00  0.00000000000E+00 -2.00900000000E+00   4.215092E-10  4.722671E-12  0.000000E+00 -4.214828E-10  3.406646E-12  3.816873E-14  0.000000E+00 -3.406433E-12  4.049685E-17  4.559846E-19  0.000000E+00 -4.049428E-17  8.612170E-15  9.697094E-17  0.000000E+00 -8.611624E-15  4.257969E-05  1.863869E-06  0.000000E+00 -4.253888E-05  3.969010E-19  1.997502E-19  0.000000E+00  3.429727E-19
  2.77700000000E+00  0.00000000000E+00 -2.13100000000E+00   3.329969E-08 -3.248399E-09  0.000000E+00 -3.314087E-08  2.352209E-09 -2.294591E-10  0.000000E+00 -2.340991E-09  9.979920E-08 -5.432254E-08  0.000000E+00  8.371943E-08  1.168698E-07 -6.361352E-08  0.000000E+00  9.804016E-08  1.345318E-02 -9.080058E-03  0.000000E+00  9.926764E-03  4.807454E-13  6.442830E-14  0.000000E+00 -4.764086E-13
  2.77700000000E+00  0.00000000000E+00 -2.13100000000E+00   4.347655E-10 -4.226274E-11  0.000000E+00 -4.327065E-10  3.513784E-12 -3.415683E-13  0.000000E+00 -3.497143E-12  4.177338E-17 -4.060346E-18  0.000000E+00 -4.157558E-17  8.883641E-15 -8.634843E-16  0.000000E+00 -8.841577E-15  4.562657E-05 -4.168668E-06  0.000000E+00 -4.543574E-05  1.076864E-19  5.008514E-20  0.000000E+00  9.533015E-20
  2.97500000000E+00  0.00000000000E+00 -2.28300000000E+00   2.498184E-08  2.187691E-10  0.000000E+00 -2.498088E-08  1.764656E-09  1.545331E-11  0.000000E+00 -1.764589E-09  6.101298E-08 -4.768036E-08  0.000000E+00  3.806793E-08  7.144691E-08 -5.583446E-08  0.000000E+00  4.457774E-08  8.387958E-03 -7.642427E-03  0.000000E+00  3.457042E-03  3.264002E-13  8.688209E-14  0.000000E+00 -3.146245E-13
  2.97500000000E+00  0.00000000000E+00 -2.28300000000E+00   3.261181E-10  2.969641E-12  0.000000E+00 -3.261046E-10  2.635693E-12  2.400070E-14  0.000000E+00 -2.635584E-12  3.133507E-17  2.852492E-19  0.000000E+00 -3.133377E-17  6.663800E-15  6.066186E-17  0.000000E+00 -6.663524E-15  3.469267E-05  2.958411E-07  0.000000E+00 -3.469141E-05  7.157017E-21 -1.931499E-21  0.000000E+00  6.891459E-21
  3.21300000000E+00  0.00000000000E+00 -2.46500000000E+00   4.690006E-08 -8.923428E-09  0.000000E+00 -4.604333E-08  3.312906E-09 -6.303292E-10  0.000000E+00 -3.252388E-09  4.476200E-08 -3.618610E-08  0.000000E+00  2.634773E-08  5.241520E-08 -4.237281E-08  0.000000E+00  3.085284E-08  6.802385E-03 -6.769033E-03  0.000000E+00 -6.727754E-04  5.026002E-13 -2.393400E-14  0.000000E+00 -5.020300E-13
  3.21300000000E+00  0.00000000000E+00 -2.46500000000E+00   6.121148E-10 -1.163682E-10  0.000000E+00 -6.009518E-10  4.947125E-12 -9.404900E-13  0.000000E+00 -4.856905E-12  5.880816E-17 -1.117697E-17  0.000000E+00 -5.773626E-17  1.250630E-14 -2.376925E-15  0.000000E+00 -1.227835E-14  6.513973E-05 -1.240042E-05  0.000000E+00 -6.394852E-05  1.369531E-19 -8.290504E-20  0.000000E+00 -1.090087E-19
  3.76800000000E+00  0.00000000000E+00 -2.89200000000E+00   6.119242E-08  3.221230E-10  0.000000E+00 -6.119157E-08  4.322483E-09  2.275404E-11  0.000000E+00 -4.322423E-09  3.139813E-08 -3.134730E-08  0.000000E+00  1.785937E-09  3.676445E-08 -3.670491E-08  0.000000E+00  2.091500E-09  7.996804E-03 -5.005341E-03  0.000000E+00 -6.236621E-03  6.109728E-13  5.888557E-14  0.000000E+00 -6.081285E-13
  3.76800000000E+00  0.00000000000E+00 -2.89200000000E+00   7.985959E-10  4.279319E-12  0.000000E+00 -7.985844E-10  6.454269E-12  3.458555E-14  0.000000E+00 -6.454176E-12  7.672007E-17  4.151699E-19  0.000000E+00 -7.671894E-17  1.631550E-14  8.829124E-17  0.000000E+00 -1.631526E-14  8.482014E-05  6.172899E-07  0.000000E+00 -8.481789E-05  2.132534E-19 -4.737916E-20  0.000000E+00 -2.079236E-19
  4.16500000000E+00  0.00000000000E+00 -3.19600000000E+00   5.088237E-08 -3.464958E-09  0.000000E+00 -5.076426E-08  3.594206E-09 -2.447561E-10  0.000000E+00 -3.585863E-09  2.619339E-08 -2.493810E-08  0.000000E+00 -8.011545E-09  3.066926E-08 -2.919927E-08  0.000000E+00 -9.381184E-09  8.004001E-03 -4.378638E-03  0.000000E+00 -6.700117E-03  4.876290E-13  1.005109E-14  0.000000E+00 -4.875254E-13
  4.16500000000E+00  0.00000000000E+00 -3.19600000000E+00   6.640164E-10 -4.515952E-11  0.000000E+00 -6.624790E-10  5.366595E-12 -3.649802E-13  0.000000E+00 -5.354169E-12  6.377326E-17 -4.341844E-18  0.000000E+00 -6.362529E-17  1.356219E-14 -9.233483E-16  0.000000E+00 -1.353073E-14  6.918825E-05 -4.649327E-06  0.000000E+00 -6.903186E-05  2.938056E-19  7.972175E-20  0.000000E+00 -2.827829E-19
  4.64100000000E+00  0.00000000000E+00 -3.56100000000E+00   4.325683E-08  2.472111E-09  0.000000E+00 -4.318613E-08  3.055569E-09  1.746220E-10  0.000000E+00 -3.050575E-09  4.912855E-08 -1.910094E-08  0.000000E+00  4.526332E-08  5.752164E-08 -2.236361E-08  0.000000E+00  5.299631E-08  3.914612E-03 -2.800875E-03  0.000000E+00  2.734828E-03  6.355120E-12  9.125616E-13  0.000000E+00  6.289260E-12
  4.64100000000E+00  0.00000000000E+00 -3.56100000000E+00   5.717742E-10  3.140271E-11  0.000000E+00 -5.709112E-10  4.621110E-12  2.537946E-13  0.000000E+00 -4.614135E-12  3.570345E-17  1.400893E-17  0.000000E+00  3.284032E-17  7.459834E-15  2.963296E-15  0.000000E+00  6.846020E-15  8.218511E-02  1.025885E-02  0.000000E+00  8.154231E-02  1.320183E-14  1.646391E-15  0.000000E+00  1.309877E-14
  2.28400000000E+00  0.00000000000E+00 -1.06500000000E+00   1.548653E-06 -5.505246E-07  0.000000E+00 -1.447497E-06  9.295344E-08 -3.304428E-08  0.000000E+00 -8.688163E-08  4.311286E-04 -3.904429E-04  0.000000E+00  1.828284E-04  4.247515E-04 -3.846302E-04  0.000000E+00  1.802039E-04  6.931458E+01 -6.284283E+01  0.000000E+00  2.924533E+01  6.949901E-08 -6.298413E-08  0.000000E+00  2.937876E-08
  2.28400000000E+00  0.00000000000E+00 -1.06500000000E+00   3.963808E-10 -8.782740E-11  0.000000E+00 -3.865282E-10  3.202700E-12 -7.096364E-13  0.000000E+00 -3.123092E-12  1.103239E-14 -9.967640E-15  0.000000E+00  4.728610E-15  2.337960E-12 -2.112309E-12  0.000000E+00  1.002102E-12  4.846015E+00 -4.344300E+00  0.000000E+00  2.147303E+00  2.961806E-10 -2.684256E-10  0.000000E+00  1.251825E-10
  2.32900000000E+00  0.00000000000E+00 -1.08600000000E+00   3.598149E-08  6.829069E-09  0.000000E+00 -3.532749E-08  2.451775E-09  3.394864E-10  0.000000E+00 -2.428157E-09  6.477337E-07 -4.523285E-07  0.000000E+00  4.636355E-07  7.586020E-07 -5.297472E-07  0.000000E+00  5.429962E-07  1.008462E-01 -7.183292E-02  0.000000E+00  7.078122E-02  8.184647E-12  3.924072E-12  0.000000E+00  7.182626E-12
  2.32900000000E+00  0.00000000000E+00 -1.08600000000E+00   4.247228E-10 -5.764584E-12  0.000000E+00 -4.246837E-10  3.431698E-12 -4.658282E-14  0.000000E+00 -3.431381E-12  1.042243E-16  9.724043E-17  0.000000E+00  3.751014E-17  2.220994E-14  2.075245E-14  0.000000E+00  7.913107E-15  1.067178E-01  4.070965E-02  0.000000E+00  9.864797E-02  1.673819E-14  5.327465E-15  0.000000E+00  1.586774E-14
  2.40200000000E+00  0.00000000000E+00 -1.12000000000E+00   3.198757E-08 -3.128204E-10  0.000000E+00 -3.198604E-08  2.258950E-09 -2.210258E-11  0.000000E+00 -2.258841E-09  5.652446E-07 -3.885588E-07  0.000000E+00  4.105161E-07  6.619759E-07 -4.550498E-07  0.000000E+00  4.807721E-07  8.835113E-02 -6.235211E-02  0.000000E+00  6.259501E-02  8.186668E-12  5.177325E-12  0.000000E+00  6.341674E-12
  2.40200000000E+00  0.00000000000E+00 -1.12000000000E+00   4.243397E-10 -5.918208E-12  0.000000E+00 -4.242985E-10  3.428602E-12 -4.782416E-14  0.000000E+00 -3.428269E-12  7.709107E-17  5.591848E-17  0.000000E+00  5.306747E-17  1.637930E-14  1.190524E-14  0.000000E+00  1.124930E-14  1.039925E-01  5.405881E-02  0.000000E+00  8.883738E-02  1.622371E-14  8.430855E-15  0.000000E+00  1.386108E-14
  2.49200000000E+00  0.00000000000E+00 -1.16200000000E+00   3.194464E-08 -3.683054E-10  0.000000E+00 -3.194252E-08  2.255921E-09 -2.601348E-11  0.000000E+00 -2.255771E-09  4.896214E-07 -3.341595E-07  0.000000E+00  3.578639E-07  5.733920E-07 -3.913273E-07  0.000000E+00  4.190959E-07  7.620420E-02 -5.363073E-02  0.000000E+00  5.413709E-02  7.876922E-12  4.872055E-12  0.000000E+00  6.189424E-12
  2.49200000000E+00  0.00000000000E+00 -1.16200000000E+00   4.235223E-10 -6.615616E-12  0.000000E+00 -4.234706E-10  3.421997E-12 -5.345906E-14  0.000000E+00 -3.421580E-12  7.292807E-17  5.291384E-17  0.000000E+00  5.018594E-17  1.549354E-14  1.126508E-14  0.000000E+00  1.063709E-14  1.001550E-01  5.148391E-02  0.000000E+00  8.590938E-02  1.562592E-14  8.034820E-15  0.000000E+00  1.340190E-14
  2.58300000000E+00  0.00000000000E+00 -1.20400000000E+00   3.204438E-08 -2.491696E-10  0.000000E+00 -3.204341E-08  2.262966E-09 -1.759679E-11  0.000000E+00 -2.262898E-09  4.334222E-07 -2.949614E-07  0.000000E+00  3.175730E-07  5.075862E-07 -3.454354E-07  0.000000E+00  3.719114E-07  6.756738E-02 -4.772015E-02  0.000000E+00  4.783449E-02  4.874173E-11 -4.038350E-11  0.000000E+00  2.729339E-11
  2.58300000000E+00  0.00000000000E+00 -1.20400000000E+00   4.378884E-10  2.201192E-11  0.000000E+00 -4.373348E-10  3.538076E-12  1.778533E-13  0.000000E+00 -3.533603E-12  6.019963E-16 -5.136762E-16  0.000000E+00  3.139051E-16  1.280127E-13 -1.092452E-13  0.000000E+00  6.672888E-14  5.976446E-01 -4.922029E-01  0.000000E+00  3.389918E-01  9.321067E-14 -7.676312E-14  0.000000E+00  5.287393E-14
  2.67400000000E+00  0.00000000000E+00 -1.24700000000E+00   3.207982E-08 -2.072677E-10  0.000000E+00 -3.207915E-08  2.265738E-09 -1.465548E-11  0.000000E+00 -2.265690E-09  3.748629E-07 -2.510594E-07  0.000000E+00  2.783727E-07  4.390445E-07 -2.940452E-07  0.000000E+00  3.260329E-07  5.819625E-02 -4.069919E-02  0.000000E+00  4.159783E-02  5.152804E-11 -3.995664E-11  0.000000E+00  3.253623E-11
  2.67400000000E+00  0.00000000000E+00 -1.24700000000E+00   4.407020E-10  2.221319E-11  0.000000E+00 -4.401418E-10  3.561235E-12  1.794516E-13  0.000000E+00 -3.556711E-12  6.326932E-16 -5.071562E-16  0.000000E+00  3.782768E-16  1.345574E-13 -1.078589E-13  0.000000E+00  8.044981E-14  6.303137E-01 -4.861167E-01  0.000000E+00  4.012305E-01  9.831033E-14 -7.581725E-14  0.000000E+00  6.258327E-14
  2.81000000000E+00  0.00000000000E+00 -1.31000000000E+00   3.201038E-08 -2.971914E-10  0.000000E+00 -3.200900E-08  2.260885E-09 -2.089587E-11  0.000000E+00 -2.260789E-09  3.014097E-07 -1.976207E-07  0.000000E+00  2.275826E-07  3.530227E-07 -2.314685E-07  0.000000E+00  2.665471E-07  4.600328E-02 -3.177086E-02  0.000000E+00  3.327032E-02  1.177188E-11  4.792137E-12  0.000000E+00  1.075233E-11
  2.81000000000E+00  0.00000000000E+00 -1.31000000000E+00   4.258614E-10 -6.338826E-12  0.000000E+00 -4.258143E-10  3.441407E-12 -5.107028E-14  0.000000E+00 -3.441028E-12  1.177750E-16  5.529725E-17  0.000000E+00  1.039863E-16  2.504785E-14  1.176022E-14  0.000000E+00  2.211543E-14  1.480329E-01  5.343657E-02  0.000000E+00  1.380517E-01  2.309232E-14  8.335830E-15  0.000000E+00  2.153530E-14
  2.99100000000E+00  0.00000000000E+00 -1.39500000000E+00   3.205525E-08 -2.577366E-10  0.000000E+00 -3.205421E-08  2.264054E-09 -1.810909E-11  0.000000E+00 -2.263982E-09  2.349430E-07 -1.522157E-07  0.000000E+00  1.789653E-07  2.751637E-07 -1.782800E-07  0.000000E+00  2.095979E-07  3.529909E-02 -2.446793E-02  0.000000E+00  2.544301E-02  1.107055E-11  4.439094E-12  0.000000E+00  1.014157E-11
  2.99100000000E+00  0.00000000000E+00 -1.39500000000E+00   4.259154E-10 -5.754681E-12  0.000000E+00 -4.258766E-10  3.441844E-12 -4.635011E-14  0.000000E+00 -3.441532E-12  1.084398E-16  5.208967E-17  0.000000E+00  9.510969E-17  2.306250E-14  1.107804E-14  0.000000E+00  2.022760E-14  1.390308E-01  5.019672E-02  0.000000E+00  1.296528E-01  2.168867E-14  7.828417E-15  0.000000E+00  2.022657E-14
  3.17200000000E+00  0.00000000000E+00 -1.47900000000E+00   4.775495E-08 -1.090520E-09  0.000000E+00 -4.774250E-08  3.373042E-09 -7.693465E-11  0.000000E+00 -3.372165E-09  2.408608E-07 -1.623947E-07  0.000000E+00  1.778817E-07  2.820818E-07 -1.901919E-07  0.000000E+00  2.083199E-07  3.525173E-02 -2.619450E-02  0.000000E+00  2.359094E-02  1.027549E-11  4.225955E-12  0.000000E+00  9.366270E-12
  3.17200000000E+00  0.00000000000E+00 -1.47900000000E+00   6.304547E-10 -1.646464E-11  0.000000E+00 -6.302397E-10  5.094934E-12 -1.329080E-13  0.000000E+00 -5.093200E-12  8.308243E-17  4.826121E-17  0.000000E+00  6.762800E-17  1.766982E-14  1.026384E-14  0.000000E+00  1.438319E-14  1.310659E-01  4.751719E-02  0.000000E+00  1.221490E-01  2.044976E-14  7.410593E-15  0.000000E+00  1.905980E-14
  2.40300000000E+00  0.00000000000E+00 -7.58000000000E-01   3.097948E-06 -9.492554E-07  0.000000E+00 -2.948931E-06  1.859514E-07 -5.697805E-08  0.000000E+00 -1.770068E-07  3.987987E-04 -3.802691E-04  0.000000E+00  1.201492E-04  3.928935E-04 -3.746377E-04  0.000000E+00  1.183718E-04  6.414002E+01 -6.125833E+01  0.000000E+00  1.900946E+01  6.951046E-08 -6.629074E-08  0.000000E+00  2.091031E-08
  2.40300000000E+00  0.00000000000E+00 -7.58000000000E-01   4.109878E-10 -6.438785E-11  0.000000E+00 -4.059128E-10  3.320711E-12 -5.202427E-13  0.000000E+00 -3.279706E-12  1.104556E-14 -1.054528E-14  0.000000E+00  3.286560E-15  2.340770E-12 -2.234776E-12  0.000000E+00  6.964047E-13  4.857762E+00 -4.632765E+00  0.000000E+00  1.461280E+00  2.961826E-10 -2.824630E-10  0.000000E+00  8.909986E-11
  2.45100000000E+00  0.00000000000E+00 -7.73000000000E-01   3.413523E-08  4.270827E-09  0.000000E+00 -3.386700E-08  2.369858E-09  2.037795E-10  0.000000E+00 -2.361081E-09  4.572551E-07 -4.326945E-07  0.000000E+00  1.478434E-07  5.355412E-07 -5.067757E-07  0.000000E+00  1.731554E-07  7.189525E-02 -6.901823E-02  0.000000E+00  2.013480E-02  7.557294E-13 -7.478250E-13  0.000000E+00 -1.090175E-13
  2.45100000000E+00  0.00000000000E+00 -7.73000000000E-01   4.251456E-10 -3.032081E-12  0.000000E+00 -4.251348E-10  3.435104E-12 -2.449864E-14  0.000000E+00 -3.435016E-12  6.720242E-17  4.142647E-17  0.000000E+00 -5.291515E-17  1.439223E-14  8.871924E-15  0.000000E+00 -1.133248E-14  1.645575E-02 -1.571782E-02  0.000000E+00  4.872563E-03  3.694199E-15 -3.525794E-15  0.000000E+00  1.102671E-15
  2.52700000000E+00  0.00000000000E+00 -7.97000000000E-01   3.243940E-08 -3.264360E-10  0.000000E+00 -3.243776E-08  2.290853E-09 -2.305601E-11  0.000000E+00 -2.290737E-09  4.271346E-07 -3.963486E-07  0.000000E+00  1.592224E-07  5.002533E-07 -4.641974E-07  0.000000E+00  1.864782E-07  6.739362E-02 -6.366331E-02  0.000000E+00  2.211069E-02  9.210577E-13  6.977952E-13  0.000000E+00 -6.011898E-13
  2.52700000000E+00  0.00000000000E+00 -7.97000000000E-01   4.252072E-10 -3.357721E-12  0.000000E+00 -4.251940E-10  3.435601E-12 -2.712981E-14  0.000000E+00 -3.435494E-12  3.987730E-17 -3.509919E-19  0.000000E+00 -3.987575E-17  8.540286E-15 -7.516986E-17  0.000000E+00 -8.539955E-15  3.964323E-05 -2.215005E-05  0.000000E+00 -3.287797E-05  3.563291E-18 -3.100563E-18  0.000000E+00  1.756005E-18
  2.62300000000E+00  0.00000000000E+00 -8.27000000000E-01   3.241146E-08 -3.396228E-10  0.000000E+00 -3.240968E-08  2.288882E-09 -2.398410E-11  0.000000E+00 -2.288756E-09  3.904903E-07 -3.540584E-07  0.000000E+00  1.646977E-07  4.573235E-07 -4.146567E-07  0.000000E+00  1.928851E-07  6.134671E-02 -5.687504E-02  0.000000E+00  2.299238E-02  8.735586E-13  6.242175E-13  0.000000E+00 -6.111113E-13
  2.62300000000E+00  0.00000000000E+00 -8.27000000000E-01   4.248684E-10 -3.594179E-12  0.000000E+00 -4.248532E-10  3.432864E-12 -2.904035E-14  0.000000E+00 -3.432741E-12  3.985772E-17 -3.351911E-19  0.000000E+00 -3.985631E-17  8.536093E-15 -7.178590E-17  0.000000E+00 -8.535791E-15  4.064744E-05  1.103451E-06  0.000000E+00 -4.063246E-05  6.779107E-19  2.189602E-19  0.000000E+00  6.415757E-19
  2.71800000000E+00  0.00000000000E+00 -8.57000000000E-01   3.246271E-08 -2.646849E-10  0.000000E+00 -3.246163E-08  2.292500E-09 -1.869182E-11  0.000000E+00 -2.292424E-09  3.543843E-07 -3.138468E-07  0.000000E+00  1.645854E-07  4.150268E-07 -3.675532E-07  0.000000E+00  1.927482E-07  5.539723E-02 -5.041125E-02  0.000000E+00  2.296864E-02  8.186054E-13  5.543709E-13  0.000000E+00 -6.023186E-13
  2.71800000000E+00  0.00000000000E+00 -8.57000000000E-01   4.255378E-10 -2.708669E-12  0.000000E+00 -4.255292E-10  3.438273E-12 -2.188558E-14  0.000000E+00 -3.438203E-12  3.970671E-17 -2.351542E-19  0.000000E+00 -3.970601E-17  8.503751E-15 -5.036141E-17  0.000000E+00 -8.503602E-15  9.137886E-05  1.165313E-05  0.000000E+00  9.063278E-05  1.945700E-17  1.712027E-18  0.000000E+00  1.938153E-17
  2.81300000000E+00  0.00000000000E+00 -8.87000000000E-01   3.245913E-08 -3.025646E-10  0.000000E+00 -3.245772E-08  2.292255E-09 -2.136998E-11  0.000000E+00 -2.292156E-09  3.172129E-07 -2.734436E-07  0.000000E+00  1.607875E-07  3.714857E-07 -3.202250E-07  0.000000E+00  1.883018E-07  4.930321E-02 -4.388840E-02  0.000000E+00  2.246365E-02  1.254825E-11  5.133383E-12  0.000000E+00  1.145019E-11
  2.81300000000E+00  0.00000000000E+00 -8.87000000000E-01   4.327530E-10 -6.098481E-12  0.000000E+00 -4.327101E-10  3.496582E-12 -4.927930E-14  0.000000E+00 -3.496235E-12  1.252603E-16  5.792193E-17  0.000000E+00  1.110639E-16  2.661451E-14  1.232804E-14  0.000000E+00  2.358711E-14  1.554498E-01  5.597225E-02  0.000000E+00  1.450232E-01  2.425025E-14  8.729848E-15  0.000000E+00  2.262442E-14
  2.95700000000E+00  0.00000000000E+00 -9.32000000000E-01   3.243988E-08 -3.114525E-10  0.000000E+00 -3.243839E-08  2.290896E-09 -2.199761E-11  0.000000E+00 -2.290790E-09  2.736509E-07 -2.281988E-07  0.000000E+00  1.510302E-07  3.204612E-07 -2.672311E-07  0.000000E+00  1.768697E-07  4.216793E-02 -3.662689E-02  0.000000E+00  2.089509E-02  1.191517E-11  4.860501E-12  0.000000E+00  1.087874E-11
  2.95700000000E+00  0.00000000000E+00 -9.32000000000E-01   4.321192E-10 -6.203994E-12  0.000000E+00 -4.320747E-10  3.491461E-12 -5.013185E-14  0.000000E+00 -3.491102E-12  1.176896E-16  5.553108E-17  0.000000E+00  1.037649E-16  2.500469E-14  1.181967E-14  0.000000E+00  2.203475E-14  1.480262E-01  5.366909E-02  0.000000E+00  1.379543E-01  2.309140E-14  8.369943E-15  0.000000E+00  2.152107E-14
  3.14700000000E+00  0.00000000000E+00 -9.92000000000E-01   3.246090E-08 -2.858996E-10  0.000000E+00 -3.245964E-08  2.292381E-09 -2.019307E-11  0.000000E+00 -2.292292E-09  2.301618E-07 -1.858470E-07  0.000000E+00  1.357767E-07  2.695238E-07 -2.176275E-07  0.000000E+00  1.590011E-07  3.506625E-02 -2.982754E-02  0.000000E+00  1.843801E-02  1.116192E-11  4.496879E-12  0.000000E+00  1.021600E-11
  3.14700000000E+00  0.00000000000E+00 -9.92000000000E-01   4.319415E-10 -5.799580E-12  0.000000E+00 -4.319026E-10  3.490025E-12 -4.686423E-14  0.000000E+00 -3.489711E-12  1.083376E-16  5.189860E-17  0.000000E+00  9.509771E-17  2.301595E-14  1.104706E-14  0.000000E+00  2.019149E-14  1.390367E-01  5.019249E-02  0.000000E+00  1.296608E-01  2.168949E-14  7.828303E-15  0.000000E+00  2.022749E-14
  3.33800000000E+00  0.00000000000E+00 -1.05200000000E+00   4.410681E-08  4.077934E-09  0.000000E+00 -4.391790E-08  3.114816E-09  2.879823E-10  0.000000E+00 -3.101474E-09  2.771731E-07 -2.019872E-07  0.000000E+00  1.898054E-07  3.245743E-07 -2.365255E-07  0.000000E+00  2.222705E-07  4.127598E-02 -3.203411E-02  0.000000E+00  2.602927E-02  2.560788E-11 -4.274067E-12  0.000000E+00  2.524868E-11
  3.33800000000E+00  0.00000000000E+00 -1.05200000000E+00   5.939563E-10  5.669692E-11  0.000000E+00 -5.912441E-10  4.799088E-12  4.581026E-13  0.000000E+00 -4.777173E-12  2.773193E-16 -5.361842E-17  0.000000E+00  2.720865E-16  5.894710E-14 -1.139827E-14  0.000000E+00  5.783459E-14  3.180977E-01 -5.622840E-02  0.000000E+00  3.130887E-01  4.961757E-14 -8.769253E-15  0.000000E+00  4.883649E-14
  2.46000000000E+00  0.00000000000E+00 -5.45000000000E-01   3.192874E-06 -6.817169E-07  0.000000E+00 -3.119248E-06  1.916525E-07 -4.092005E-08  0.000000E+00 -1.872331E-07  3.771793E-04 -3.683191E-04  0.000000E+00  8.127298E-05  3.715976E-04 -3.628691E-04  0.000000E+00  8.006712E-05  6.066747E+01 -5.931457E+01  0.000000E+00  1.274062E+01  6.951217E-08 -6.786668E-08  0.000000E+00  1.503514E-08
  2.46000000000E+00  0.00000000000E+00 -5.45000000000E-01   4.209704E-10 -4.393459E-11  0.000000E+00 -4.186715E-10  3.401369E-12 -3.549839E-13  0.000000E+00 -3.382794E-12  1.104667E-14 -1.079361E-14  0.000000E+00  2.350947E-15  2.341007E-12 -2.287397E-12  0.000000E+00  4.981258E-13  4.857753E+00 -4.742756E+00  0.000000E+00  1.050731E+00  2.961826E-10 -2.891711E-10  0.000000E+00  6.406433E-11
  2.50900000000E+00  0.00000000000E+00 -5.56000000000E-01   3.373889E-08  3.578987E-09  0.000000E+00 -3.354852E-08  2.359560E-09  1.794930E-10  0.000000E+00 -2.352723E-09  4.218895E-07 -4.114396E-07  0.000000E+00  9.331782E-08  4.941333E-07 -4.818940E-07  0.000000E+00  1.092974E-07  6.666488E-02 -6.568038E-02  0.000000E+00  1.141467E-02  8.154326E-13 -8.025426E-13  0.000000E+00 -1.444151E-13
  2.50900000000E+00  0.00000000000E+00 -5.56000000000E-01   4.295366E-10  3.025380E-12  0.000000E+00 -4.295260E-10  3.470583E-12  2.444460E-14  0.000000E+00 -3.470496E-12  6.577454E-17  4.289059E-17  0.000000E+00 -4.986670E-17  1.408643E-14  9.185488E-15  0.000000E+00 -1.067963E-14  1.644665E-02 -1.605690E-02  0.000000E+00  3.559223E-03  3.691542E-15 -3.601892E-15  0.000000E+00  8.086138E-16
  2.58700000000E+00  0.00000000000E+00 -5.74000000000E-01   3.269946E-08 -2.140265E-11  0.000000E+00 -3.269945E-08  2.309219E-09 -1.513233E-12  0.000000E+00 -2.309218E-09  3.947080E-07 -3.835265E-07  0.000000E+00  9.328320E-08  4.622885E-07 -4.491927E-07  0.000000E+00  1.092548E-07  6.263731E-02 -6.157307E-02  0.000000E+00  1.149737E-02  8.349911E-13  6.779647E-13  0.000000E+00 -4.874158E-13
  2.58700000000E+00  0.00000000000E+00 -5.74000000000E-01   4.284687E-10  6.165406E-13  0.000000E+00 -4.284683E-10  3.461954E-12  4.981543E-15  0.000000E+00 -3.461950E-12  4.019390E-17  1.808964E-20  0.000000E+00 -4.019390E-17  8.608090E-15  3.874144E-18  0.000000E+00 -8.608090E-15  4.662546E-05 -2.408531E-05  0.000000E+00 -3.992281E-05  3.529301E-18 -3.437255E-18  0.000000E+00  8.007764E-19
  2.68500000000E+00  0.00000000000E+00 -5.95000000000E-01   3.269307E-08 -2.333096E-11  0.000000E+00 -3.269306E-08  2.308769E-09 -1.647719E-12  0.000000E+00 -2.308768E-09  3.623561E-07 -3.501301E-07  0.000000E+00  9.333181E-08  4.243870E-07 -4.100682E-07  0.000000E+00  1.093088E-07  5.737681E-02 -5.621136E-02  0.000000E+00  1.150571E-02  7.891234E-13  6.203062E-13  0.000000E+00 -4.877869E-13
  2.68500000000E+00  0.00000000000E+00 -5.95000000000E-01   4.283924E-10  5.385698E-13  0.000000E+00 -4.283920E-10  3.461337E-12  4.351552E-15  0.000000E+00 -3.461334E-12  4.019578E-17  4.991361E-20  0.000000E+00 -4.019575E-17  8.608494E-15  1.068970E-17  0.000000E+00 -8.608487E-15  4.544602E-05 -1.124139E-07  0.000000E+00 -4.544588E-05  2.118800E-20 -1.766414E-20  0.000000E+00  1.170084E-20
  2.78200000000E+00  0.00000000000E+00 -6.17000000000E-01   3.266661E-08 -9.725996E-11  0.000000E+00 -3.266646E-08  2.306900E-09 -6.868375E-12  0.000000E+00 -2.306890E-09  3.303144E-07 -3.169868E-07  0.000000E+00  9.288177E-08  3.868509E-07 -3.712421E-07  0.000000E+00  1.087791E-07  5.216704E-02 -5.089808E-02  0.000000E+00  1.143617E-02  7.425477E-13  5.607979E-13  0.000000E+00 -4.867061E-13
  2.78200000000E+00  0.00000000000E+00 -6.17000000000E-01   4.280426E-10 -5.087797E-13  0.000000E+00 -4.280423E-10  3.458511E-12 -4.110853E-15  0.000000E+00 -3.458509E-12  4.016289E-17 -4.837614E-20  0.000000E+00 -4.016286E-17  8.601448E-15 -1.036043E-17  0.000000E+00 -8.601442E-15  4.538823E-05 -1.860534E-07  0.000000E+00 -4.538785E-05  1.748185E-20 -1.078197E-20  0.000000E+00  1.376097E-20