Title="TOUGHREACT V4.13omp : flowdata.tec: P,T,SAT & Other Variables"
Variables= "X(m)"     "Y(m)"      "Z(m)"       "P(Pa)"        "T(C)"      "SatGas"      "SatLiq"     "Xairgas"     "Xairliq"    "Pair(Pa)"    "Pcap(Pa)"  "DGas_kg/m3"  "DLiq_kg/m3"    "Porosity"  "Perm_X(m2)"  "Perm_Y(m2)"  "Perm_Z(m2)"    "Krel_Gas"    "Krel_Liq"  "HGas(J/kg)"  "HLiq(J/kg)"  "Cp(J/kg/C)"   "TC(W/m/C)"  "DBlk_kg/m3"
Zone T= "1.00000000E+01 sec" I=    4490 J=       1 K=       1 F=Point
  1.99900000000E+00  0.00000000000E+00 -1.53400000000E+00   8.879314E+04  2.542244E+01  9.832960E-01  1.670404E-02  9.769090E-01  1.375132E-05  8.554731E+04 -3.238870E+04  1.021555E+00  9.970449E+02  8.500000E-01  3.310999E-13  3.310999E-13  3.310999E-13  9.864819E-01  8.959595E-06  1.607836E+05  1.066116E+05  9.850000E+02  1.810000E-03  3.849103E+02
  1.99900000000E+00  0.00000000000E+00 -1.53400000000E+00   8.881625E+04  2.542246E+01  3.575639E-02  9.642436E-01  9.769152E-01  1.375503E-05  8.557044E+04 -3.284046E+04  1.021825E+00  9.970449E+02  1.287000E-01  1.769999E-19  1.769999E-19  1.769999E-19  4.153244E-04  2.185268E-01  1.607686E+05  1.066117E+05  9.850000E+02  2.074000E+00  2.272362E+03
  2.03900000000E+00  0.00000000000E+00 -1.56500000000E+00   8.879382E+04  2.542244E+01  9.832956E-01  1.670439E-02  9.769092E-01  1.375143E-05  8.554799E+04 -3.238843E+04  1.021563E+00  9.970449E+02  8.500000E-01  3.310999E-13  3.310999E-13  3.310999E-13  9.864812E-01  8.960597E-06  1.607832E+05  1.066116E+05  9.850000E+02  1.810000E-03  3.849106E+02
  2.03900000000E+00  0.00000000000E+00 -1.56500000000E+00   8.881626E+04  2.542246E+01  3.575639E-02  9.642436E-01  9.769152E-01  1.375503E-05  8.557044E+04 -3.284046E+04  1.021825E+00  9.970449E+02  1.287000E-01  1.769999E-19  1.769999E-19  1.769999E-19  4.153244E-04  2.185268E-01  1.607686E+05  1.066117E+05  9.850000E+02  2.074000E+00  2.272362E+03
  2.10200000000E+00  0.00000000000E+00 -1.61300000000E+00   8.879494E+04  2.542244E+01  9.832956E-01  1.670439E-02  9.769095E-01  1.375161E-05  8.554911E+04 -3.238843E+04  1.021576E+00  9.970449E+02  8.500000E-01  3.310999E-13  3.310999E-13  3.310999E-13  9.864813E-01  8.960588E-06  1.607824E+05  1.066116E+05  9.850000E+02  1.810000E-03  3.849106E+02
  2.10200000000E+00  0.00000000000E+00 -1.61300000000E+00   8.881626E+04  2.542246E+01  3.575639E-02  9.642436E-01  9.769152E-01  1.375503E-05  8.557044E+04 -3.284046E+04  1.021825E+00  9.970449E+02  1.287000E-01  1.769999E-19  1.769999E-19  1.769999E-19  4.153244E-04  2.185268E-01  1.607686E+05  1.066117E+05  9.850000E+02  2.074000E+00  2.272362E+03
  2.18200000000E+00  0.00000000000E+00 -1.67400000000E+00   8.879636E+04  2.542244E+01  9.832956E-01  1.670439E-02  9.769099E-01  1.375184E-05  8.555054E+04 -3.238843E+04  1.021593E+00  9.970449E+02  8.500000E-01  3.310999E-13  3.310999E-13  3.310999E-13  9.864813E-01  8.960584E-06  1.607815E+05  1.066116E+05  9.850000E+02  1.810000E-03  3.849106E+02
  2.18200000000E+00  0.00000000000E+00 -1.67400000000E+00   8.881626E+04  2.542246E+01  3.575639E-02  9.642436E-01  9.769152E-01  1.375503E-05  8.557044E+04 -3.284046E+04  1.021825E+00  9.970449E+02  1.287000E-01  1.769999E-19  1.769999E-19  1.769999E-19  4.153244E-04  2.185268E-01  1.607686E+05  1.066117E+05  9.850000E+02  2.074000E+00  2.272362E+03
  2.26100000000E+00  0.00000000000E+00 -1.73500000000E+00   8.879777E+04  2.542244E+01  9.832956E-01  1.670439E-02  9.769102E-01  1.375206E-05  8.555195E+04 -3.238843E+04  1.021609E+00  9.970449E+02  8.500000E-01  3.310999E-13  3.310999E-13  3.310999E-13  9.864813E-01  8.960590E-06  1.607806E+05  1.066116E+05  9.850000E+02  1.810000E-03  3.849107E+02
  2.26100000000E+00  0.00000000000E+00 -1.73500000000E+00   8.881626E+04  2.542246E+01  3.575639E-02  9.642436E-01  9.769152E-01  1.375503E-05  8.557044E+04 -3.284046E+04  1.021825E+00  9.970449E+02  1.287000E-01  1.769999E-19  1.769999E-19  1.769999E-19  4.153244E-04  2.185268E-01  1.607686E+05  1.066117E+05  9.850000E+02  2.074000E+00  2.272362E+03
  2.34000000000E+00  0.00000000000E+00 -1.79600000000E+00   8.879916E+04  2.542245E+01  9.832956E-01  1.670439E-02  9.769106E-01  1.375229E-05  8.555333E+04 -3.238843E+04  1.021625E+00  9.970449E+02  8.500000E-01  3.310999E-13  3.310999E-13  3.310999E-13  9.864812E-01  8.960594E-06  1.607798E+05  1.066116E+05  9.850000E+02  1.810000E-03  3.849107E+02
  2.34000000000E+00  0.00000000000E+00 -1.79600000000E+00   8.881626E+04  2.542246E+01  3.575639E-02  9.642436E-01  9.769152E-01  1.375503E-05  8.557044E+04 -3.284046E+04  1.021825E+00  9.970449E+02  1.287000E-01  1.769999E-19  1.769999E-19  1.769999E-19  4.153244E-04  2.185268E-01  1.607686E+05  1.066117E+05  9.850000E+02  2.074000E+00  2.272362E+03
  2.45900000000E+00  0.00000000000E+00 -1.88700000000E+00   8.880114E+04  2.542245E+01  9.832956E-01  1.670439E-02  9.769111E-01  1.375260E-05  8.555531E+04 -3.238843E+04  1.021648E+00  9.970449E+02  8.500000E-01  3.310999E-13  3.310999E-13  3.310999E-13  9.864812E-01  8.960592E-06  1.607785E+05  1.066116E+05  9.850000E+02  1.810000E-03  3.849107E+02
  2.45900000000E+00  0.00000000000E+00 -1.88700000000E+00   8.881626E+04  2.542246E+01  3.575639E-02  9.642436E-01  9.769152E-01  1.375503E-05  8.557044E+04 -3.284046E+04  1.021825E+00  9.970449E+02  1.287000E-01  1.769999E-19  1.769999E-19  1.769999E-19  4.153244E-04  2.185268E-01  1.607686E+05  1.066117E+05  9.850000E+02  2.074000E+00  2.272362E+03
  2.61800000000E+00  0.00000000000E+00 -2.00900000000E+00   8.880359E+04  2.542245E+01  9.832956E-01  1.670439E-02  9.769118E-01  1.375300E-05  8.555776E+04 -3.238843E+04  1.021677E+00  9.970449E+02  8.500000E-01  3.310999E-13  3.310999E-13  3.310999E-13  9.864812E-01  8.960595E-06  1.607769E+05  1.066117E+05  9.850000E+02  1.810000E-03  3.849107E+02
  2.61800000000E+00  0.00000000000E+00 -2.00900000000E+00   8.881626E+04  2.542246E+01  3.575639E-02  9.642436E-01  9.769152E-01  1.375503E-05  8.557044E+04 -3.284046E+04  1.021825E+00  9.970449E+02  1.287000E-01  1.769999E-19  1.769999E-19  1.769999E-19  4.153244E-04  2.185268E-01  1.607686E+05  1.066117E+05  9.850000E+02  2.074000E+00  2.272362E+03
  2.77700000000E+00  0.00000000000E+00 -2.13100000000E+00   8.880582E+04  2.542245E+01  9.832956E-01  1.670439E-02  9.769124E-01  1.375336E-05  8.556000E+04 -3.238843E+04  1.021703E+00  9.970449E+02  8.500000E-01  3.310999E-13  3.310999E-13  3.310999E-13  9.864812E-01  8.960597E-06  1.607755E+05  1.066117E+05  9.850000E+02  1.810000E-03  3.849107E+02
  2.77700000000E+00  0.00000000000E+00 -2.13100000000E+00   8.881626E+04  2.542246E+01  3.575639E-02  9.642436E-01  9.769152E-01  1.375503E-05  8.557044E+04 -3.284046E+04  1.021825E+00  9.970449E+02  1.287000E-01  1.769999E-19  1.769999E-19  1.769999E-19  4.153244E-04  2.185268E-01  1.607686E+05  1.066117E+05  9.850000E+02  2.074000E+00  2.272362E+03
  2.97500000000E+00  0.00000000000E+00 -2.28300000000E+00   8.880833E+04  2.542246E+01  9.832956E-01  1.670439E-02  9.769130E-01  1.375376E-05  8.556251E+04 -3.238843E+04  1.021732E+00  9.970449E+02  8.500000E-01  3.310999E-13  3.310999E-13  3.310999E-13  9.864812E-01  8.960599E-06  1.607739E+05  1.066117E+05  9.850000E+02  1.810000E-03  3.849108E+02
  2.97500000000E+00  0.00000000000E+00 -2.28300000000E+00   8.881626E+04  2.542246E+01  3.575639E-02  9.642436E-01  9.769152E-01  1.375503E-05  8.557044E+04 -3.284046E+04  1.021825E+00  9.970449E+02  1.287000E-01  1.769999E-19  1.769999E-19  1.769999E-19  4.153244E-04  2.185268E-01  1.607686E+05  1.066117E+05  9.850000E+02  2.074000E+00  2.272362E+03
  3.21300000000E+00  0.00000000000E+00 -2.46500000000E+00   8.881096E+04  2.542246E+01  9.832956E-01  1.670439E-02  9.769137E-01  1.375418E-05  8.556514E+04 -3.238843E+04  1.021763E+00  9.970449E+02  8.500000E-01  3.310999E-13  3.310999E-13  3.310999E-13  9.864812E-01  8.960600E-06  1.607722E+05  1.066117E+05  9.850000E+02  1.810000E-03  3.849108E+02
  3.21300000000E+00  0.00000000000E+00 -2.46500000000E+00   8.881626E+04  2.542246E+01  3.575639E-02  9.642436E-01  9.769152E-01  1.375503E-05  8.557044E+04 -3.284046E+04  1.021825E+00  9.970449E+02  1.287000E-01  1.769999E-19  1.769999E-19  1.769999E-19  4.153244E-04  2.185268E-01  1.607686E+05  1.066117E+05  9.850000E+02  2.074000E+00  2.272362E+03
  3.76800000000E+00  0.00000000000E+00 -2.89200000000E+00   8.881605E+04  2.542246E+01  9.832956E-01  1.670439E-02  9.769150E-01  1.375500E-05  8.557022E+04 -3.238843E+04  1.021822E+00  9.970449E+02  8.500000E-01  3.310999E-13  3.310999E-13  3.310999E-13  9.864812E-01  8.960605E-06  1.607689E+05  1.066117E+05  9.850000E+02  1.810000E-03  3.849108E+02
  3.76800000000E+00  0.00000000000E+00 -2.89200000000E+00   8.881626E+04  2.542246E+01  3.575639E-02  9.642436E-01  9.769152E-01  1.375503E-05  8.557044E+04 -3.284046E+04  1.021825E+00  9.970449E+02  1.287000E-01  1.769999E-19  1.769999E-19  1.769999E-19  4.153244E-04  2.185268E-01  1.607686E+05  1.066117E+05  9.850000E+02  2.074000E+00  2.272362E+03
  4.16500000000E+00  0.00000000000E+00 -3.19600000000E+00   8.881939E+04  2.542247E+01  9.832956E-01  1.670440E-02  9.769159E-01  1.375554E-05  8.557356E+04 -3.238843E+04  1.021861E+00  9.970449E+02  8.500000E-01  3.310999E-13  3.310999E-13  3.310999E-13  9.864812E-01  8.960607E-06  1.607668E+05  1.066117E+05  9.850000E+02  1.810000E-03  3.849109E+02
  4.16500000000E+00  0.00000000000E+00 -3.19600000000E+00   8.881626E+04  2.542246E+01  3.575639E-02  9.642436E-01  9.769152E-01  1.375504E-05  8.557044E+04 -3.284046E+04  1.021825E+00  9.970449E+02  1.287000E-01  1.769999E-19  1.769999E-19  1.769999E-19  4.153244E-04  2.185268E-01  1.607686E+05  1.066117E+05  9.850000E+02  2.074000E+00  2.272362E+03
  4.64100000000E+00  0.00000000000E+00 -3.56100000000E+00   8.882361E+04  2.542247E+01  9.832956E-01  1.670440E-02  9.769170E-01  1.375621E-05  8.557778E+04 -3.238842E+04  1.021911E+00  9.970449E+02  8.500000E-01  3.310999E-13  3.310999E-13  3.310999E-13  9.864812E-01  8.960610E-06  1.607641E+05  1.066118E+05  9.850000E+02  1.810000E-03  3.849109E+02
  4.64100000000E+00  0.00000000000E+00 -3.56100000000E+00   8.881626E+04  2.542246E+01  3.575639E-02  9.642436E-01  9.769152E-01  1.375504E-05  8.557045E+04 -3.284046E+04  1.021825E+00  9.970449E+02  1.287000E-01  1.769999E-19  1.769999E-19  1.769999E-19  4.153244E-04  2.185268E-01  1.607686E+05  1.066117E+05  9.850000E+02  2.074000E+00  2.272362E+03
  2.28400000000E+00  0.00000000000E+00 -1.06500000000E+00   8.877433E+04  2.536349E+01  9.832715E-01  1.672846E-02  9.769860E-01  1.375012E-05  8.553986E+04 -3.236967E+04  1.021587E+00  9.970603E+02  1.000000E+00  3.311000E-11  3.311000E-11  3.311000E-11  9.864328E-01  9.030057E-06  1.605342E+05  1.063652E+05  9.850000E+02  1.810000E-03  1.768381E+01
  2.28400000000E+00  0.00000000000E+00 -1.06500000000E+00   8.878679E+04  2.536345E+01  3.550968E-02  9.644903E-01  9.769894E-01  1.375212E-05  8.555233E+04 -3.267052E+04  1.021733E+00  9.970603E+02  1.287000E-01  1.769999E-19  1.769999E-19  1.769999E-19  4.070528E-04  2.195802E-01  1.605259E+05  1.063651E+05  9.850000E+02  2.074000E+00  2.272396E+03
  2.32900000000E+00  0.00000000000E+00 -1.08600000000E+00   8.877547E+04  2.536424E+01  9.832913E-01  1.670869E-02  9.769853E-01  1.375028E-05  8.554086E+04 -3.238508E+04  1.021597E+00  9.970601E+02  8.500000E-01  3.310999E-13  3.310999E-13  3.310999E-13  9.864726E-01  8.972980E-06  1.605368E+05  1.063683E+05  9.850000E+02  1.810000E-03  3.849145E+02
  2.32900000000E+00  0.00000000000E+00 -1.08600000000E+00   8.878570E+04  2.536425E+01  3.550947E-02  9.644905E-01  9.769880E-01  1.375192E-05  8.555109E+04 -3.267038E+04  1.021717E+00  9.970601E+02  1.287000E-01  1.769999E-19  1.769999E-19  1.769999E-19  4.070460E-04  2.195811E-01  1.605301E+05  1.063684E+05  9.850000E+02  2.074000E+00  2.272396E+03
  2.40200000000E+00  0.00000000000E+00 -1.12000000000E+00   8.877839E+04  2.536424E+01  9.832916E-01  1.670841E-02  9.769861E-01  1.375075E-05  8.554378E+04 -3.238530E+04  1.021632E+00  9.970601E+02  8.500000E-01  3.310999E-13  3.310999E-13  3.310999E-13  9.864732E-01  8.972164E-06  1.605349E+05  1.063683E+05  9.850000E+02  1.810000E-03  3.849143E+02
  2.40200000000E+00  0.00000000000E+00 -1.12000000000E+00   8.878570E+04  2.536425E+01  3.550947E-02  9.644905E-01  9.769880E-01  1.375192E-05  8.555109E+04 -3.267038E+04  1.021717E+00  9.970601E+02  1.287000E-01  1.769999E-19  1.769999E-19  1.769999E-19  4.070460E-04  2.195811E-01  1.605301E+05  1.063684E+05  9.850000E+02  2.074000E+00  2.272396E+03
  2.49200000000E+00  0.00000000000E+00 -1.16200000000E+00   8.878157E+04  2.536424E+01  9.832916E-01  1.670841E-02  9.769869E-01  1.375126E-05  8.554695E+04 -3.238530E+04  1.021669E+00  9.970601E+02  8.500000E-01  3.310999E-13  3.310999E-13  3.310999E-13  9.864732E-01  8.972171E-06  1.605329E+05  1.063684E+05  9.850000E+02  1.810000E-03  3.849143E+02
  2.49200000000E+00  0.00000000000E+00 -1.16200000000E+00   8.878570E+04  2.536425E+01  3.550947E-02  9.644905E-01  9.769880E-01  1.375192E-05  8.555109E+04 -3.267038E+04  1.021717E+00  9.970601E+02  1.287000E-01  1.769999E-19  1.769999E-19  1.769999E-19  4.070460E-04  2.195811E-01  1.605301E+05  1.063684E+05  9.850000E+02  2.074000E+00  2.272396E+03
  2.58300000000E+00  0.00000000000E+00 -1.20400000000E+00   8.878437E+04  2.536429E+01  9.832916E-01  1.670841E-02  9.769876E-01  1.375171E-05  8.554974E+04 -3.238530E+04  1.021701E+00  9.970601E+02  8.500000E-01  3.310999E-13  3.310999E-13  3.310999E-13  9.864732E-01  8.972161E-06  1.605313E+05  1.063685E+05  9.850000E+02  1.810000E-03  3.849144E+02
  2.58300000000E+00  0.00000000000E+00 -1.20400000000E+00   8.878574E+04  2.536430E+01  3.550946E-02  9.644905E-01  9.769880E-01  1.375193E-05  8.555112E+04 -3.267037E+04  1.021717E+00  9.970601E+02  1.287000E-01  1.769999E-19  1.769999E-19  1.769999E-19  4.070456E-04  2.195811E-01  1.605303E+05  1.063686E+05  9.850000E+02  2.074000E+00  2.272396E+03
  2.67400000000E+00  0.00000000000E+00 -1.24700000000E+00   8.878693E+04  2.542240E+01  9.832956E-01  1.670439E-02  9.769074E-01  1.375032E-05  8.554112E+04 -3.238843E+04  1.021483E+00  9.970449E+02  8.500000E-01  3.310999E-13  3.310999E-13  3.310999E-13  9.864813E-01  8.960588E-06  1.607874E+05  1.066114E+05  9.850000E+02  1.810000E-03  3.849106E+02
  2.67400000000E+00  0.00000000000E+00 -1.24700000000E+00   8.881622E+04  2.542243E+01  3.575640E-02  9.642436E-01  9.769152E-01  1.375503E-05  8.557042E+04 -3.284047E+04  1.021825E+00  9.970449E+02  1.287000E-01  1.769999E-19  1.769999E-19  1.769999E-19  4.153247E-04  2.185267E-01  1.607685E+05  1.066116E+05  9.850000E+02  2.074000E+00  2.272362E+03
  2.81000000000E+00  0.00000000000E+00 -1.31000000000E+00   8.879016E+04  2.542244E+01  9.832956E-01  1.670439E-02  9.769082E-01  1.375084E-05  8.554434E+04 -3.238843E+04  1.021521E+00  9.970449E+02  8.500000E-01  3.310999E-13  3.310999E-13  3.310999E-13  9.864813E-01  8.960581E-06  1.607855E+05  1.066116E+05  9.850000E+02  1.810000E-03  3.849106E+02
  2.81000000000E+00  0.00000000000E+00 -1.31000000000E+00   8.881625E+04  2.542246E+01  3.575639E-02  9.642436E-01  9.769152E-01  1.375503E-05  8.557044E+04 -3.284046E+04  1.021825E+00  9.970449E+02  1.287000E-01  1.769999E-19  1.769999E-19  1.769999E-19  4.153244E-04  2.185268E-01  1.607686E+05  1.066117E+05  9.850000E+02  2.074000E+00  2.272362E+03
  2.99100000000E+00  0.00000000000E+00 -1.39500000000E+00   8.879369E+04  2.542244E+01  9.832956E-01  1.670439E-02  9.769092E-01  1.375141E-05  8.554787E+04 -3.238843E+04  1.021562E+00  9.970449E+02  8.500000E-01  3.310999E-13  3.310999E-13  3.310999E-13  9.864813E-01  8.960589E-06  1.607832E+05  1.066116E+05  9.850000E+02  1.810000E-03  3.849106E+02
  2.99100000000E+00  0.00000000000E+00 -1.39500000000E+00   8.881625E+04  2.542246E+01  3.575639E-02  9.642436E-01  9.769152E-01  1.375503E-05  8.557044E+04 -3.284046E+04  1.021825E+00  9.970449E+02  1.287000E-01  1.769999E-19  1.769999E-19  1.769999E-19  4.153244E-04  2.185268E-01  1.607686E+05  1.066117E+05  9.850000E+02  2.074000E+00  2.272362E+03
  3.17200000000E+00  0.00000000000E+00 -1.47900000000E+00   8.879659E+04  2.542244E+01  9.832956E-01  1.670439E-02  9.769099E-01  1.375187E-05  8.555077E+04 -3.238843E+04  1.021595E+00  9.970449E+02  8.500000E-01  3.310999E-13  3.310999E-13  3.310999E-13  9.864813E-01  8.960588E-06  1.607814E+05  1.066116E+05  9.850000E+02  1.810000E-03  3.849107E+02
  3.17200000000E+00  0.00000000000E+00 -1.47900000000E+00   8.881626E+04  2.542246E+01  3.575639E-02  9.642436E-01  9.769152E-01  1.375503E-05  8.557044E+04 -3.284046E+04  1.021825E+00  9.970449E+02  1.287000E-01  1.769999E-19  1.769999E-19  1.769999E-19  4.153244E-04  2.185268E-01  1.607686E+05  1.066117E+05  9.850000E+02  2.074000E+00  2.272362E+03
  2.40300000000E+00  0.00000000000E+00 -7.58000000000E-01   8.877117E+04  2.536348E+01  9.832907E-01  1.670929E-02  9.769852E-01  1.374961E-05  8.553670E+04 -3.238461E+04  1.021550E+00  9.970603E+02  1.000000E+00  3.311000E-11  3.311000E-11  3.311000E-11  9.864714E-01  8.974720E-06  1.605362E+05  1.063651E+05  9.850000E+02  1.810000E-03  1.766468E+01
  2.40300000000E+00  0.00000000000E+00 -7.58000000000E-01   8.878679E+04  2.536345E+01  3.550968E-02  9.644903E-01  9.769894E-01  1.375212E-05  8.555233E+04 -3.267052E+04  1.021733E+00  9.970603E+02  1.287000E-01  1.769999E-19  1.769999E-19  1.769999E-19  4.070528E-04  2.195802E-01  1.605259E+05  1.063650E+05  9.850000E+02  2.074000E+00  2.272396E+03
  2.45100000000E+00  0.00000000000E+00 -7.73000000000E-01   8.877197E+04  2.536423E+01  9.832914E-01  1.670858E-02  9.769844E-01  1.374972E-05  8.553735E+04 -3.238517E+04  1.021557E+00  9.970601E+02  8.500000E-01  3.310999E-13  3.310999E-13  3.310999E-13  9.864728E-01  8.972653E-06  1.605390E+05  1.063683E+05  9.850000E+02  1.810000E-03  3.849144E+02
  2.45100000000E+00  0.00000000000E+00 -7.73000000000E-01   8.878570E+04  2.536425E+01  3.550948E-02  9.644905E-01  9.769880E-01  1.375192E-05  8.555109E+04 -3.267038E+04  1.021717E+00  9.970601E+02  1.287000E-01  1.769999E-19  1.769999E-19  1.769999E-19  4.070460E-04  2.195811E-01  1.605301E+05  1.063684E+05  9.850000E+02  2.074000E+00  2.272396E+03
  2.52700000000E+00  0.00000000000E+00 -7.97000000000E-01   8.877417E+04  2.536424E+01  9.832916E-01  1.670841E-02  9.769850E-01  1.375007E-05  8.553955E+04 -3.238530E+04  1.021582E+00  9.970601E+02  8.500000E-01  3.310999E-13  3.310999E-13  3.310999E-13  9.864732E-01  8.972164E-06  1.605376E+05  1.063683E+05  9.850000E+02  1.810000E-03  3.849143E+02
  2.52700000000E+00  0.00000000000E+00 -7.97000000000E-01   8.878570E+04  2.536425E+01  3.550947E-02  9.644905E-01  9.769880E-01  1.375192E-05  8.555109E+04 -3.267038E+04  1.021717E+00  9.970601E+02  1.287000E-01  1.769999E-19  1.769999E-19  1.769999E-19  4.070460E-04  2.195811E-01  1.605301E+05  1.063684E+05  9.850000E+02  2.074000E+00  2.272396E+03
  2.62300000000E+00  0.00000000000E+00 -8.27000000000E-01   8.877671E+04  2.536424E+01  9.832916E-01  1.670841E-02  9.769856E-01  1.375048E-05  8.554210E+04 -3.238530E+04  1.021612E+00  9.970601E+02  8.500000E-01  3.310999E-13  3.310999E-13  3.310999E-13  9.864732E-01  8.972160E-06  1.605360E+05  1.063683E+05  9.850000E+02  1.810000E-03  3.849143E+02
  2.62300000000E+00  0.00000000000E+00 -8.27000000000E-01   8.878570E+04  2.536425E+01  3.550947E-02  9.644905E-01  9.769880E-01  1.375192E-05  8.555109E+04 -3.267038E+04  1.021717E+00  9.970601E+02  1.287000E-01  1.769999E-19  1.769999E-19  1.769999E-19  4.070460E-04  2.195811E-01  1.605301E+05  1.063684E+05  9.850000E+02  2.074000E+00  2.272396E+03
  2.71800000000E+00  0.00000000000E+00 -8.57000000000E-01   8.877904E+04  2.536424E+01  9.832916E-01  1.670841E-02  9.769862E-01  1.375085E-05  8.554443E+04 -3.238530E+04  1.021639E+00  9.970601E+02  8.500000E-01  3.310999E-13  3.310999E-13  3.310999E-13  9.864732E-01  8.972165E-06  1.605345E+05  1.063683E+05  9.850000E+02  1.810000E-03  3.849143E+02
  2.71800000000E+00  0.00000000000E+00 -8.57000000000E-01   8.878570E+04  2.536425E+01  3.550947E-02  9.644905E-01  9.769880E-01  1.375192E-05  8.555109E+04 -3.267038E+04  1.021717E+00  9.970601E+02  1.287000E-01  1.769999E-19  1.769999E-19  1.769999E-19  4.070460E-04  2.195811E-01  1.605301E+05  1.063684E+05  9.850000E+02  2.074000E+00  2.272396E+03
  2.81300000000E+00  0.00000000000E+00 -8.87000000000E-01   8.878117E+04  2.536425E+01  9.832916E-01  1.670841E-02  9.769868E-01  1.375119E-05  8.554655E+04 -3.238530E+04  1.021664E+00  9.970601E+02  8.500000E-01  3.310999E-13  3.310999E-13  3.310999E-13  9.864732E-01  8.972169E-06  1.605331E+05  1.063684E+05  9.850000E+02  1.810000E-03  3.849143E+02
  2.81300000000E+00  0.00000000000E+00 -8.87000000000E-01   8.878570E+04  2.536425E+01  3.550947E-02  9.644905E-01  9.769880E-01  1.375192E-05  8.555109E+04 -3.267038E+04  1.021717E+00  9.970601E+02  1.287000E-01  1.769999E-19  1.769999E-19  1.769999E-19  4.070460E-04  2.195811E-01  1.605301E+05  1.063684E+05  9.850000E+02  2.074000E+00  2.272396E+03
  2.95700000000E+00  0.00000000000E+00 -9.32000000000E-01   8.878401E+04  2.536425E+01  9.832916E-01  1.670841E-02  9.769875E-01  1.375165E-05  8.554939E+04 -3.238530E+04  1.021697E+00  9.970601E+02  8.500000E-01  3.310999E-13  3.310999E-13  3.310999E-13  9.864732E-01  8.972167E-06  1.605313E+05  1.063684E+05  9.850000E+02  1.810000E-03  3.849144E+02
  2.95700000000E+00  0.00000000000E+00 -9.32000000000E-01   8.878570E+04  2.536425E+01  3.550947E-02  9.644905E-01  9.769880E-01  1.375192E-05  8.555109E+04 -3.267038E+04  1.021717E+00  9.970601E+02  1.287000E-01  1.769999E-19  1.769999E-19  1.769999E-19  4.070460E-04  2.195811E-01  1.605301E+05  1.063684E+05  9.850000E+02  2.074000E+00  2.272396E+03
  3.14700000000E+00  0.00000000000E+00 -9.92000000000E-01   8.878725E+04  2.536425E+01  9.832916E-01  1.670841E-02  9.769884E-01  1.375217E-05  8.555264E+04 -3.238530E+04  1.021735E+00  9.970601E+02  8.500000E-01  3.310999E-13  3.310999E-13  3.310999E-13  9.864732E-01  8.972172E-06  1.605293E+05  1.063684E+05  9.850000E+02  1.810000E-03  3.849144E+02
  3.14700000000E+00  0.00000000000E+00 -9.92000000000E-01   8.878570E+04  2.536425E+01  3.550947E-02  9.644905E-01  9.769880E-01  1.375192E-05  8.555109E+04 -3.267038E+04  1.021717E+00  9.970601E+02  1.287000E-01  1.769999E-19  1.769999E-19  1.769999E-19  4.070460E-04  2.195811E-01  1.605301E+05  1.063684E+05  9.850000E+02  2.074000E+00  2.272396E+03
  3.33800000000E+00  0.00000000000E+00 -1.05200000000E+00   8.879005E+04  2.536426E+01  9.832916E-01  1.670841E-02  9.769891E-01  1.375262E-05  8.555543E+04 -3.238530E+04  1.021767E+00  9.970601E+02  8.500000E-01  3.310999E-13  3.310999E-13  3.310999E-13  9.864732E-01  8.972171E-06  1.605275E+05  1.063684E+05  9.850000E+02  1.810000E-03  3.849144E+02
  3.33800000000E+00  0.00000000000E+00 -1.05200000000E+00   8.878571E+04  2.536425E+01  3.550947E-02  9.644905E-01  9.769880E-01  1.375193E-05  8.555110E+04 -3.267038E+04  1.021717E+00  9.970601E+02  1.287000E-01  1.769999E-19  1.769999E-19  1.769999E-19  4.070460E-04  2.195811E-01  1.605301E+05  1.063684E+05  9.850000E+02  2.074000E+00  2.272396E+03
  2.46000000000E+00  0.00000000000E+00 -5.45000000000E-01   8.876905E+04  2.536347E+01  9.832911E-01  1.670894E-02  9.769847E-01  1.374927E-05  8.553458E+04 -3.238489E+04  1.021526E+00  9.970603E+02  1.000000E+00  3.311000E-11  3.311000E-11  3.311000E-11  9.864721E-01  8.973691E-06  1.605375E+05  1.063651E+05  9.850000E+02  1.810000E-03  1.766430E+01
  2.46000000000E+00  0.00000000000E+00 -5.45000000000E-01   8.878679E+04  2.536345E+01  3.550968E-02  9.644903E-01  9.769894E-01  1.375212E-05  8.555233E+04 -3.267052E+04  1.021733E+00  9.970603E+02  1.287000E-01  1.769999E-19  1.769999E-19  1.769999E-19  4.070528E-04  2.195802E-01  1.605259E+05  1.063650E+05  9.850000E+02  2.074000E+00  2.272396E+03
  2.50900000000E+00  0.00000000000E+00 -5.56000000000E-01   8.876976E+04  2.536423E+01  9.832915E-01  1.670853E-02  9.769838E-01  1.374936E-05  8.553515E+04 -3.238520E+04  1.021531E+00  9.970601E+02  8.500000E-01  3.310999E-13  3.310999E-13  3.310999E-13  9.864729E-01  8.972512E-06  1.605404E+05  1.063683E+05  9.850000E+02  1.810000E-03  3.849143E+02
  2.50900000000E+00  0.00000000000E+00 -5.56000000000E-01   8.878570E+04  2.536425E+01  3.550948E-02  9.644905E-01  9.769880E-01  1.375192E-05  8.555109E+04 -3.267038E+04  1.021717E+00  9.970601E+02  1.287000E-01  1.769999E-19  1.769999E-19  1.769999E-19  4.070460E-04  2.195811E-01  1.605301E+05  1.063684E+05  9.850000E+02  2.074000E+00  2.272396E+03
  2.58700000000E+00  0.00000000000E+00 -5.74000000000E-01   8.877175E+04  2.536423E+01  9.832916E-01  1.670841E-02  9.769843E-01  1.374968E-05  8.553713E+04 -3.238530E+04  1.021554E+00  9.970601E+02  8.500000E-01  3.310999E-13  3.310999E-13  3.310999E-13  9.864732E-01  8.972179E-06  1.605391E+05  1.063683E+05  9.850000E+02  1.810000E-03  3.849142E+02
  2.58700000000E+00  0.00000000000E+00 -5.74000000000E-01   8.878570E+04  2.536425E+01  3.550947E-02  9.644905E-01  9.769880E-01  1.375192E-05  8.555109E+04 -3.267038E+04  1.021717E+00  9.970601E+02  1.287000E-01  1.769999E-19  1.769999E-19  1.769999E-19  4.070460E-04  2.195811E-01  1.605301E+05  1.063684E+05  9.850000E+02  2.074000E+00  2.272396E+03
  2.68500000000E+00  0.00000000000E+00 -5.95000000000E-01   8.877404E+04  2.536424E+01  9.832916E-01  1.670840E-02  9.769849E-01  1.375005E-05  8.553942E+04 -3.238530E+04  1.021581E+00  9.970601E+02  8.500000E-01  3.310999E-13  3.310999E-13  3.310999E-13  9.864732E-01  8.972148E-06  1.605377E+05  1.063683E+05  9.850000E+02  1.810000E-03  3.849142E+02
  2.68500000000E+00  0.00000000000E+00 -5.95000000000E-01   8.878570E+04  2.536425E+01  3.550947E-02  9.644905E-01  9.769880E-01  1.375192E-05  8.555109E+04 -3.267038E+04  1.021717E+00  9.970601E+02  1.287000E-01  1.769999E-19  1.769999E-19  1.769999E-19  4.070460E-04  2.195811E-01  1.605301E+05  1.063684E+05  9.850000E+02  2.074000E+00  2.272396E+03
  2.78200000000E+00  0.00000000000E+00 -6.17000000000E-01   8.877616E+04  2.536424E+01  9.832916E-01  1.670841E-02  9.769855E-01  1.375039E-05  8.554154E+04 -3.238530E+04  1.021605E+00  9.970601E+02  8.500000E-01  3.310999E-13  3.310999E-13  3.310999E-13  9.864732E-01  8.972175E-06  1.605363E+05  1.063683E+05  9.850000E+02  1.810000E-03  3.849143E+02
  2.78200000000E+00  0.00000000000E+00 -6.17000000000E-01   8.878570E+04  2.536425E+01  3.550947E-02  9.644905E-01  9.769880E-01  1.375192E-05  8.555109E+04 -3.267038E+04  1.021717E+00  9.970601E+02  1.287000E-01  1.769999E-19  1.769999E-19  1.769999E-19  4.070460E-04  2.195811E-01  1.605301E+05  1.063684E+05  9.850000E+02  2.074000E+00  2.272396E+03
  2.88000000000E+00  0.00000000000E+00 -6.38000000000E-01   8.877810E+04  2.536424E+01  9.832916E-01  1.670840E-02  9.769860E-01  1.375070E-05  8.554348E+04 -3.238530E+04  1.021628E+00  9.970601E+02  8.500000E-01  3.310999E-13  3.310999E-13  3.310999E-13  9.864732E-01  8.972156E-06  1.605351E+05  1.063683E+05  9.850000E+02  1.810000E-03  3.849143E+02
  2.88000000000E+00  0.00000000000E+00 -6.38000000000E-01   8.878570E+04  2.536425E+01  3.550947E-02  9.644905E-01  9.769880E-01  1.375192E-05  8.555109E+04 -3.267038E+04  1.021717E+00  9.970601E+02  1.287000E-01  1.769999E-19  1.769999E-19  1.769999E-19  4.070460E-04  2.195811E-01  1.605301E+05  1.063684E+05  9.850000E+02  2.074000E+00  2.272396E+03
  3.02700000000E+00  0.00000000000E+00 -6.71000000000E-01   8.878072E+04  2.536424E+01  9.832916E-01  1.670841E-02  9.769867E-01  1.375112E-05  8.554610E+04 -3.238530E+04  1.021659E+00  9.970601E+02  8.500000E-01  3.310999E-13  3.310999E-13  3.310999E-13  9.864732E-01  8.972169E-06  1.605334E+05  1.063684E+05  9.850000E+02  1.810000E-03  3.849143E+02
  3.02700000000E+00  0.00000000000E+00 -6.71000000000E-01   8.878570E+04  2.536425E+01  3.550947E-02  9.644905E-01  9.769880E-01  1.375192E-05  8.555109E+04 -3.267038E+04  1.021717E+00  9.970601E+02  1.287000E-01  1.769999E-19  1.769999E-19  1.769999E-19  4.070460E-04  2.195811E-01  1.605301E+05  1.063684E+05  9.850000E+02  2.074000E+00  2.272396E+03
  3.22200000000E+00  0.00000000000E+00 -7.14000000000E-01   8.878374E+04  2.536425E+01  9.832916E-01  1.670841E-02  9.769875E-01  1.375161E-05  8.554912E+04 -3.238530E+04  1.021694E+00  9.970601E+02  8.500000E-01  3.310999E-13  3.310999E-13  3.310999E-13  9.864732E-01  8.972166E-06  1.605315E+05  1.063684E+05  9.850000E+02  1.810000E-03  3.849143E+02
  3.22200000000E+00  0.00000000000E+00 -7.14000000000E-01   8.878570E+04  2.536425E+01  3.550947E-02  9.644905E-01  9.769880E-01  1.375192E-05  8.555109E+04 -3.267038E+04  1.021717E+00  9.970601E+02  1.287000E-01  1.769999E-19  1.769999E-19  1.769999E-19  4.070460E-04  2.195811E-01  1.605301E+05  1.063684E+05  9.850000E+02  2.074000E+00  2.272396E+03
  3.41700000000E+00  0.00000000000E+00 -7.58000000000E-01   8.878635E+04  2.536425E+01  9.832916E-01  1.670841E-02  9.769881E-01  1.375203E-05  8.555173E+04 -3.238530E+04  1.021724E+00  9.970601E+02  8.500000E-01  3.310999E-13  3.310999E-13  3.310999E-13  9.864732E-01  8.972173E-06  1.605298E+05  1.063684E+05  9.850000E+02  1.810000E-03  3.849144E+02
  3.41700000000E+00  0.00000000000E+00 -7.58000000000E-01   8.878570E+04  2.536425E+01  3.550947E-02  9.644905E-01  9.769880E-01  1.375192E-05  8.555109E+04 -3.267038E+04  1.021717E+00  9.970601E+02  1.287000E-01  1.769999E-19  1.769999E-19  1.769999E-19  4.070460E-04  2.195811E-01  1.605301E+05  1.063684E+05  9.850000E+02  2.074000E+00  2.272396E+03
  2.49800000000E+00  0.00000000000E+00 -3.29000000000E-01   8.876695E+04  2.536347E+01  9.832913E-01  1.670872E-02  9.769841E-01  1.374893E-05  8.553248E+04 -3.238505E+04  1.021501E+00  9.970603E+02  1.000000E+00  3.311000E-11  3.311000E-11  3.311000E-11  9.864725E-01  8.973074E-06  1.605388E+05  1.063651E+05  9.850000E+02  1.810000E-03  1.766407E+01