Title="TOUGHREACT V4.13omp : Gas Species Concentrations: Mole fraction"
Variables= "X(m)"   "Y(m)"   "Z(m)"     "P(bar)"       "T(C)"     "SatGas"         "RH"       "co2(g)"
Zone T= "0.00000000E+00 sec" I=    4490 J=       1 K=       1 F=Point
  1.99900000000E+00  0.00000000000E+00 -1.53400000000E+00  8.87931E-01   25.422  9.83296E-01  0.9998  9.4413E-04
  1.99900000000E+00  0.00000000000E+00 -1.53400000000E+00  8.88163E-01   25.422  3.57564E-02  0.9998  9.4388E-04
  2.03900000000E+00  0.00000000000E+00 -1.56500000000E+00  8.87938E-01   25.422  9.83296E-01  0.9998  9.4412E-04
  2.03900000000E+00  0.00000000000E+00 -1.56500000000E+00  8.88163E-01   25.422  3.57564E-02  0.9998  9.4388E-04
  2.10200000000E+00  0.00000000000E+00 -1.61300000000E+00  8.87949E-01   25.422  9.83296E-01  0.9998  9.4411E-04
  2.10200000000E+00  0.00000000000E+00 -1.61300000000E+00  8.88163E-01   25.422  3.57564E-02  0.9998  9.4388E-04
  2.18200000000E+00  0.00000000000E+00 -1.67400000000E+00  8.87964E-01   25.422  9.83296E-01  0.9998  9.4409E-04
  2.18200000000E+00  0.00000000000E+00 -1.67400000000E+00  8.88163E-01   25.422  3.57564E-02  0.9998  9.4388E-04
  2.26100000000E+00  0.00000000000E+00 -1.73500000000E+00  8.87978E-01   25.422  9.83296E-01  0.9998  9.4408E-04
  2.26100000000E+00  0.00000000000E+00 -1.73500000000E+00  8.88163E-01   25.422  3.57564E-02  0.9998  9.4388E-04
  2.34000000000E+00  0.00000000000E+00 -1.79600000000E+00  8.87992E-01   25.422  9.83296E-01  0.9998  9.4406E-04
  2.34000000000E+00  0.00000000000E+00 -1.79600000000E+00  8.88163E-01   25.422  3.57564E-02  0.9998  9.4388E-04
  2.45900000000E+00  0.00000000000E+00 -1.88700000000E+00  8.88011E-01   25.422  9.83296E-01  0.9998  9.4404E-04
  2.45900000000E+00  0.00000000000E+00 -1.88700000000E+00  8.88163E-01   25.422  3.57564E-02  0.9998  9.4388E-04
  2.61800000000E+00  0.00000000000E+00 -2.00900000000E+00  8.88036E-01   25.422  9.83296E-01  0.9998  9.4402E-04
  2.61800000000E+00  0.00000000000E+00 -2.00900000000E+00  8.88163E-01   25.422  3.57564E-02  0.9998  9.4388E-04
  2.77700000000E+00  0.00000000000E+00 -2.13100000000E+00  8.88058E-01   25.422  9.83296E-01  0.9998  9.4399E-04
  2.77700000000E+00  0.00000000000E+00 -2.13100000000E+00  8.88163E-01   25.422  3.57564E-02  0.9998  9.4388E-04
  2.97500000000E+00  0.00000000000E+00 -2.28300000000E+00  8.88083E-01   25.422  9.83296E-01  0.9998  9.4397E-04
  2.97500000000E+00  0.00000000000E+00 -2.28300000000E+00  8.88163E-01   25.422  3.57564E-02  0.9998  9.4388E-04
  3.21300000000E+00  0.00000000000E+00 -2.46500000000E+00  8.88110E-01   25.422  9.83296E-01  0.9998  9.4394E-04
  3.21300000000E+00  0.00000000000E+00 -2.46500000000E+00  8.88163E-01   25.422  3.57564E-02  0.9998  9.4388E-04
  3.76800000000E+00  0.00000000000E+00 -2.89200000000E+00  8.88160E-01   25.422  9.83296E-01  0.9998  9.4389E-04
  3.76800000000E+00  0.00000000000E+00 -2.89200000000E+00  8.88163E-01   25.422  3.57564E-02  0.9998  9.4388E-04
  4.16500000000E+00  0.00000000000E+00 -3.19600000000E+00  8.88194E-01   25.422  9.83296E-01  0.9998  9.4385E-04
  4.16500000000E+00  0.00000000000E+00 -3.19600000000E+00  8.88163E-01   25.422  3.57564E-02  0.9998  9.4388E-04
  4.64100000000E+00  0.00000000000E+00 -3.56100000000E+00  8.88236E-01   25.422  9.83296E-01  0.9998  9.4381E-04
  4.64100000000E+00  0.00000000000E+00 -3.56100000000E+00  8.88163E-01   25.422  3.57564E-02  0.9998  9.4388E-04
  2.28400000000E+00  0.00000000000E+00 -1.06500000000E+00  8.87743E-01   25.363  9.83292E-01  0.9998  9.4433E-04
  2.28400000000E+00  0.00000000000E+00 -1.06500000000E+00  8.87868E-01   25.363  3.55095E-02  0.9998  9.4420E-04
  2.32900000000E+00  0.00000000000E+00 -1.08600000000E+00  8.87755E-01   25.364  9.83292E-01  0.9998  9.4432E-04
  2.32900000000E+00  0.00000000000E+00 -1.08600000000E+00  8.87857E-01   25.364  3.55095E-02  0.9998  9.4421E-04
  2.40200000000E+00  0.00000000000E+00 -1.12000000000E+00  8.87784E-01   25.364  9.83292E-01  0.9998  9.4429E-04
  2.40200000000E+00  0.00000000000E+00 -1.12000000000E+00  8.87857E-01   25.364  3.55095E-02  0.9998  9.4421E-04
  2.49200000000E+00  0.00000000000E+00 -1.16200000000E+00  8.87816E-01   25.364  9.83292E-01  0.9998  9.4425E-04
  2.49200000000E+00  0.00000000000E+00 -1.16200000000E+00  8.87857E-01   25.364  3.55095E-02  0.9998  9.4421E-04
  2.58300000000E+00  0.00000000000E+00 -1.20400000000E+00  8.87844E-01   25.364  9.83292E-01  0.9998  9.4422E-04
  2.58300000000E+00  0.00000000000E+00 -1.20400000000E+00  8.87857E-01   25.364  3.55095E-02  0.9998  9.4421E-04
  2.67400000000E+00  0.00000000000E+00 -1.24700000000E+00  8.87869E-01   25.422  9.83296E-01  0.9998  9.4419E-04
  2.67400000000E+00  0.00000000000E+00 -1.24700000000E+00  8.88162E-01   25.422  3.57564E-02  0.9998  9.4388E-04
  2.81000000000E+00  0.00000000000E+00 -1.31000000000E+00  8.87902E-01   25.422  9.83296E-01  0.9998  9.4416E-04
  2.81000000000E+00  0.00000000000E+00 -1.31000000000E+00  8.88163E-01   25.422  3.57564E-02  0.9998  9.4388E-04
  2.99100000000E+00  0.00000000000E+00 -1.39500000000E+00  8.87937E-01   25.422  9.83296E-01  0.9998  9.4412E-04
  2.99100000000E+00  0.00000000000E+00 -1.39500000000E+00  8.88163E-01   25.422  3.57564E-02  0.9998  9.4388E-04
  3.17200000000E+00  0.00000000000E+00 -1.47900000000E+00  8.87966E-01   25.422  9.83296E-01  0.9998  9.4409E-04
  3.17200000000E+00  0.00000000000E+00 -1.47900000000E+00  8.88163E-01   25.422  3.57564E-02  0.9998  9.4388E-04
  2.40300000000E+00  0.00000000000E+00 -7.58000000000E-01  8.87712E-01   25.363  9.83292E-01  0.9998  9.4436E-04
  2.40300000000E+00  0.00000000000E+00 -7.58000000000E-01  8.87868E-01   25.363  3.55095E-02  0.9998  9.4420E-04
  2.45100000000E+00  0.00000000000E+00 -7.73000000000E-01  8.87720E-01   25.364  9.83292E-01  0.9998  9.4435E-04
  2.45100000000E+00  0.00000000000E+00 -7.73000000000E-01  8.87857E-01   25.364  3.55095E-02  0.9998  9.4421E-04
  2.52700000000E+00  0.00000000000E+00 -7.97000000000E-01  8.87742E-01   25.364  9.83292E-01  0.9998  9.4433E-04
  2.52700000000E+00  0.00000000000E+00 -7.97000000000E-01  8.87857E-01   25.364  3.55095E-02  0.9998  9.4421E-04
  2.62300000000E+00  0.00000000000E+00 -8.27000000000E-01  8.87767E-01   25.364  9.83292E-01  0.9998  9.4430E-04
  2.62300000000E+00  0.00000000000E+00 -8.27000000000E-01  8.87857E-01   25.364  3.55095E-02  0.9998  9.4421E-04
  2.71800000000E+00  0.00000000000E+00 -8.57000000000E-01  8.87790E-01   25.364  9.83292E-01  0.9998  9.4428E-04
  2.71800000000E+00  0.00000000000E+00 -8.57000000000E-01  8.87857E-01   25.364  3.55095E-02  0.9998  9.4421E-04
  2.81300000000E+00  0.00000000000E+00 -8.87000000000E-01  8.87812E-01   25.364  9.83292E-01  0.9998  9.4426E-04
  2.81300000000E+00  0.00000000000E+00 -8.87000000000E-01  8.87857E-01   25.364  3.55095E-02  0.9998  9.4421E-04
  2.95700000000E+00  0.00000000000E+00 -9.32000000000E-01  8.87840E-01   25.364  9.83292E-01  0.9998  9.4423E-04
  2.95700000000E+00  0.00000000000E+00 -9.32000000000E-01  8.87857E-01   25.364  3.55095E-02  0.9998  9.4421E-04
  3.14700000000E+00  0.00000000000E+00 -9.92000000000E-01  8.87873E-01   25.364  9.83292E-01  0.9998  9.4419E-04
  3.14700000000E+00  0.00000000000E+00 -9.92000000000E-01  8.87857E-01   25.364  3.55095E-02  0.9998  9.4421E-04
  3.33800000000E+00  0.00000000000E+00 -1.05200000000E+00  8.87900E-01   25.364  9.83292E-01  0.9998  9.4416E-04
  3.33800000000E+00  0.00000000000E+00 -1.05200000000E+00  8.87857E-01   25.364  3.55095E-02  0.9998  9.4421E-04
  2.46000000000E+00  0.00000000000E+00 -5.45000000000E-01  8.87691E-01   25.363  9.83292E-01  0.9998  9.4439E-04
  2.46000000000E+00  0.00000000000E+00 -5.45000000000E-01  8.87868E-01   25.363  3.55095E-02  0.9998  9.4420E-04
  2.50900000000E+00  0.00000000000E+00 -5.56000000000E-01  8.87698E-01   25.364  9.83292E-01  0.9998  9.4438E-04
  2.50900000000E+00  0.00000000000E+00 -5.56000000000E-01  8.87857E-01   25.364  3.55095E-02  0.9998  9.4421E-04
  2.58700000000E+00  0.00000000000E+00 -5.74000000000E-01  8.87717E-01   25.364  9.83292E-01  0.9998  9.4436E-04
  2.58700000000E+00  0.00000000000E+00 -5.74000000000E-01  8.87857E-01   25.364  3.55095E-02  0.9998  9.4421E-04
  2.68500000000E+00  0.00000000000E+00 -5.95000000000E-01  8.87740E-01   25.364  9.83292E-01  0.9998  9.4433E-04
  2.68500000000E+00  0.00000000000E+00 -5.95000000000E-01  8.87857E-01   25.364  3.55095E-02  0.9998  9.4421E-04
  2.78200000000E+00  0.00000000000E+00 -6.17000000000E-01  8.87762E-01   25.364  9.83292E-01  0.9998  9.4431E-04
  2.78200000000E+00  0.00000000000E+00 -6.17000000000E-01  8.87857E-01   25.364  3.55095E-02  0.9998  9.4421E-04
  2.88000000000E+00  0.00000000000E+00 -6.38000000000E-01  8.87781E-01   25.364  9.83292E-01  0.9998  9.4429E-04
  2.88000000000E+00  0.00000000000E+00 -6.38000000000E-01  8.87857E-01   25.364  3.55095E-02  0.9998  9.4421E-04
  3.02700000000E+00  0.00000000000E+00 -6.71000000000E-01  8.87807E-01   25.364  9.83292E-01  0.9998  9.4426E-04
  3.02700000000E+00  0.00000000000E+00 -6.71000000000E-01  8.87857E-01   25.364  3.55095E-02  0.9998  9.4421E-04
  3.22200000000E+00  0.00000000000E+00 -7.14000000000E-01  8.87837E-01   25.364  9.83292E-01  0.9998  9.4423E-04
  3.22200000000E+00  0.00000000000E+00 -7.14000000000E-01  8.87857E-01   25.364  3.55095E-02  0.9998  9.4421E-04
  3.41700000000E+00  0.00000000000E+00 -7.58000000000E-01  8.87863E-01   25.364  9.83292E-01  0.9998  9.4420E-04
  3.41700000000E+00  0.00000000000E+00 -7.58000000000E-01  8.87857E-01   25.364  3.55095E-02  0.9998  9.4421E-04
  2.49800000000E+00  0.00000000000E+00 -3.29000000000E-01  8.87669E-01   25.363  9.83292E-01  0.9998  9.4441E-04
  2.49800000000E+00  0.00000000000E+00 -3.29000000000E-01  8.87868E-01   25.363  3.55095E-02  0.9998  9.4420E-04
  2.54800000000E+00  0.00000000000E+00 -3.35000000000E-01  8.87676E-01   25.364  9.83292E-01  0.9998  9.4440E-04
  2.54800000000E+00  0.00000000000E+00 -3.35000000000E-01  8.87857E-01   25.364  3.55095E-02  0.9998  9.4421E-04
  2.62700000000E+00  0.00000000000E+00 -3.46000000000E-01  8.87695E-01   25.364  9.83292E-01  0.9998  9.4438E-04
  2.62700000000E+00  0.00000000000E+00 -3.46000000000E-01  8.87857E-01   25.364  3.55095E-02  0.9998  9.4421E-04
  2.72600000000E+00  0.00000000000E+00 -3.59000000000E-01  8.87716E-01   25.364  9.83292E-01  0.9998  9.4436E-04
  2.72600000000E+00  0.00000000000E+00 -3.59000000000E-01  8.87857E-01   25.364  3.55095E-02  0.9998  9.4421E-04
  2.82600000000E+00  0.00000000000E+00 -3.72000000000E-01  8.87736E-01   25.364  9.83292E-01  0.9998  9.4434E-04
  2.82600000000E+00  0.00000000000E+00 -3.72000000000E-01  8.87857E-01   25.364  3.55095E-02  0.9998  9.4421E-04
  2.92500000000E+00  0.00000000000E+00 -3.85000000000E-01  8.87754E-01   25.364  9.83292E-01  0.9998  9.4432E-04
  2.92500000000E+00  0.00000000000E+00 -3.85000000000E-01  8.87857E-01   25.364  3.55095E-02  0.9998  9.4421E-04
  3.07300000000E+00  0.00000000000E+00 -4.05000000000E-01  8.87778E-01   25.364  9.83292E-01  0.9998  9.4429E-04
  3.07300000000E+00  0.00000000000E+00 -4.05000000000E-01  8.87857E-01   25.364  3.55095E-02  0.9998  9.4421E-04
  3.27200000000E+00  0.00000000000E+00 -4.31000000000E-01  8.87807E-01   25.364  9.83292E-01  0.9998  9.4426E-04
  3.27200000000E+00  0.00000000000E+00 -4.31000000000E-01  8.87857E-01   25.364  3.55095E-02  0.9998  9.4421E-04
  3.47000000000E+00  0.00000000000E+00 -4.57000000000E-01  8.87831E-01   25.364  9.83292E-01  0.9998  9.4424E-04
  3.47000000000E+00  0.00000000000E+00 -4.57000000000E-01  8.87857E-01   25.364  3.55095E-02  0.9998  9.4421E-04
  2.51800000000E+00  0.00000000000E+00 -1.10000000000E-01  8.87649E-01   25.363  9.83292E-01  0.9998  9.4443E-04
  2.51800000000E+00  0.00000000000E+00 -1.10000000000E-01  8.87868E-01   25.363  3.55095E-02  0.9998  9.4420E-04
  2.56800000000E+00  0.00000000000E+00 -1.12000000000E-01  8.87655E-01   25.364  9.83292E-01  0.9998  9.4442E-04
  2.56800000000E+00  0.00000000000E+00 -1.12000000000E-01  8.87857E-01   25.364  3.55095E-02  0.9998  9.4421E-04
  2.64700000000E+00  0.00000000000E+00 -1.16000000000E-01  8.87673E-01   25.364  9.83292E-01  0.9998  9.4440E-04
  2.64700000000E+00  0.00000000000E+00 -1.16000000000E-01  8.87857E-01   25.364  3.55095E-02  0.9998  9.4421E-04
  2.74700000000E+00  0.00000000000E+00 -1.20000000000E-01  8.87693E-01   25.364  9.83292E-01  0.9998  9.4438E-04
  2.74700000000E+00  0.00000000000E+00 -1.20000000000E-01  8.87857E-01   25.364  3.55095E-02  0.9998  9.4421E-04
  2.84700000000E+00  0.00000000000E+00 -1.24000000000E-01  8.87712E-01   25.364  9.83292E-01  0.9998  9.4436E-04
  2.84700000000E+00  0.00000000000E+00 -1.24000000000E-01  8.87857E-01   25.364  3.55095E-02  0.9998  9.4421E-04
  2.94700000000E+00  0.00000000000E+00 -1.29000000000E-01  8.87729E-01   25.364  9.83292E-01  0.9998  9.4434E-04
  2.94700000000E+00  0.00000000000E+00 -1.29000000000E-01  8.87857E-01   25.364  3.55095E-02  0.9998  9.4421E-04
  3.09700000000E+00  0.00000000000E+00 -1.35000000000E-01  8.87752E-01   25.364  9.83292E-01  0.9998  9.4432E-04
  3.09700000000E+00  0.00000000000E+00 -1.35000000000E-01  8.87857E-01   25.364  3.55095E-02  0.9998  9.4421E-04
  3.29700000000E+00  0.00000000000E+00 -1.44000000000E-01  8.87778E-01   25.364  9.83292E-01  0.9998  9.4429E-04
  3.29700000000E+00  0.00000000000E+00 -1.44000000000E-01  8.87857E-01   25.364  3.55095E-02  0.9998  9.4421E-04
  3.49700000000E+00  0.00000000000E+00 -1.53000000000E-01  8.87801E-01   25.364  9.83292E-01  0.9998  9.4427E-04
  3.49700000000E+00  0.00000000000E+00 -1.53000000000E-01  8.87857E-01   25.364  3.55095E-02  0.9998  9.4421E-04
  2.51800000000E+00  0.00000000000E+00  1.10000000000E-01  8.87628E-01   25.363  9.83292E-01  0.9998  9.4445E-04
  2.51800000000E+00  0.00000000000E+00  1.10000000000E-01  8.87868E-01   25.363  3.55095E-02  0.9998  9.4420E-04
  2.56800000000E+00  0.00000000000E+00  1.12000000000E-01  8.87634E-01   25.364  9.83292E-01  0.9998  9.4445E-04
  2.56800000000E+00  0.00000000000E+00  1.12000000000E-01  8.87857E-01   25.364  3.55095E-02  0.9998  9.4421E-04
  2.64700000000E+00  0.00000000000E+00  1.16000000000E-01  8.87651E-01   25.364  9.83292E-01  0.9998  9.4443E-04
  2.64700000000E+00  0.00000000000E+00  1.16000000000E-01  8.87857E-01   25.364  3.55095E-02  0.9998  9.4421E-04
  2.74700000000E+00  0.00000000000E+00  1.20000000000E-01  8.87671E-01   25.364  9.83292E-01  0.9998  9.4441E-04
  2.74700000000E+00  0.00000000000E+00  1.20000000000E-01  8.87857E-01   25.364  3.55095E-02  0.9998  9.4421E-04
  2.84700000000E+00  0.00000000000E+00  1.24000000000E-01  8.87689E-01   25.364  9.83292E-01  0.9998  9.4439E-04
  2.84700000000E+00  0.00000000000E+00  1.24000000000E-01  8.87857E-01   25.364  3.55095E-02  0.9998  9.4421E-04
  2.94700000000E+00  0.00000000000E+00  1.29000000000E-01  8.87705E-01   25.364  9.83292E-01  0.9998  9.4437E-04
  2.94700000000E+00  0.00000000000E+00  1.29000000000E-01  8.87857E-01   25.364  3.55095E-02  0.9998  9.4421E-04
  3.09700000000E+00  0.00000000000E+00  1.35000000000E-01  8.87727E-01   25.364  9.83292E-01  0.9998  9.4435E-04
  3.09700000000E+00  0.00000000000E+00  1.35000000000E-01  8.87857E-01   25.364  3.55095E-02  0.9998  9.4421E-04
  3.29700000000E+00  0.00000000000E+00  1.44000000000E-01  8.87751E-01   25.364  9.83292E-01  0.9998  9.4432E-04
  3.29700000000E+00  0.00000000000E+00  1.44000000000E-01  8.87857E-01   25.364  3.55095E-02  0.9998  9.4421E-04
  3.49700000000E+00  0.00000000000E+00  1.53000000000E-01  8.87772E-01   25.364  9.83292E-01  0.9998  9.4430E-04
  3.49700000000E+00  0.00000000000E+00  1.53000000000E-01  8.87857E-01   25.364  3.55095E-02  0.9998  9.4421E-04
  2.49800000000E+00  0.00000000000E+00  3.29000000000E-01  8.87608E-01   25.363  9.83292E-01  0.9998  9.4447E-04
  2.49800000000E+00  0.00000000000E+00  3.29000000000E-01  8.87868E-01   25.363  3.55095E-02  0.9998  9.4420E-04
  2.54800000000E+00  0.00000000000E+00  3.35000000000E-01  8.87613E-01   25.364  9.83292E-01  0.9998  9.4447E-04
  2.54800000000E+00  0.00000000000E+00  3.35000000000E-01  8.87857E-01   25.364  3.55095E-02  0.9998  9.4421E-04
  2.62700000000E+00  0.00000000000E+00  3.46000000000E-01  8.87630E-01   25.364  9.83292E-01  0.9998  9.4445E-04
  2.62700000000E+00  0.00000000000E+00  3.46000000000E-01  8.87857E-01   25.364  3.55095E-02  0.9998  9.4421E-04
  2.72600000000E+00  0.00000000000E+00  3.59000000000E-01  8.87649E-01   25.364  9.83292E-01  0.9998  9.4443E-04
  2.72600000000E+00  0.00000000000E+00  3.59000000000E-01  8.87857E-01   25.364  3.55095E-02  0.9998  9.4421E-04
  2.82600000000E+00  0.00000000000E+00  3.72000000000E-01  8.87666E-01   25.364  9.83292E-01  0.9998  9.4441E-04
  2.82600000000E+00  0.00000000000E+00  3.72000000000E-01  8.87857E-01   25.364  3.55095E-02  0.9998  9.4421E-04
  2.92500000000E+00  0.00000000000E+00  3.85000000000E-01  8.87682E-01   25.364  9.83292E-01  0.9998  9.4439E-04
  2.92500000000E+00  0.00000000000E+00  3.85000000000E-01  8.87857E-01   25.364  3.55095E-02  0.9998  9.4421E-04
  3.07300000000E+00  0.00000000000E+00  4.05000000000E-01  8.87702E-01   25.364  9.83292E-01  0.9998  9.4437E-04
  3.07300000000E+00  0.00000000000E+00  4.05000000000E-01  8.87857E-01   25.364  3.55095E-02  0.9998  9.4421E-04
  3.27200000000E+00  0.00000000000E+00  4.31000000000E-01  8.87725E-01   25.364  9.83292E-01  0.9998  9.4435E-04
  3.27200000000E+00  0.00000000000E+00  4.31000000000E-01  8.87857E-01   25.364  3.55095E-02  0.9998  9.4421E-04
  3.47000000000E+00  0.00000000000E+00  4.57000000000E-01  8.87743E-01   25.364  9.83292E-01  0.9998  9.4433E-04
  3.47000000000E+00  0.00000000000E+00  4.57000000000E-01  8.87857E-01   25.364  3.55095E-02  0.9998  9.4421E-04
  2.43400000000E+00  0.00000000000E+00  6.52000000000E-01  8.87579E-01   25.363  9.83292E-01  0.9998  9.4450E-04
  2.43400000000E+00  0.00000000000E+00  6.52000000000E-01  8.87868E-01   25.363  3.55095E-02  0.9998  9.4420E-04
  2.48200000000E+00  0.00000000000E+00  6.65000000000E-01  8.87584E-01   25.364  9.83292E-01  0.9998  9.4450E-04
  2.48200000000E+00  0.00000000000E+00  6.65000000000E-01  8.87857E-01   25.364  3.55095E-02  0.9998  9.4421E-04
  2.56000000000E+00  0.00000000000E+00  6.86000000000E-01  8.87599E-01   25.364  9.83292E-01  0.9998  9.4448E-04
  2.56000000000E+00  0.00000000000E+00  6.86000000000E-01  8.87857E-01   25.364  3.55095E-02  0.9998  9.4421E-04
  2.65600000000E+00  0.00000000000E+00  7.12000000000E-01  8.87617E-01   25.364  9.83292E-01  0.9998  9.4446E-04
  2.65600000000E+00  0.00000000000E+00  7.12000000000E-01  8.87857E-01   25.364  3.55095E-02  0.9998  9.4421E-04
  2.75300000000E+00  0.00000000000E+00  7.38000000000E-01  8.87633E-01   25.364  9.83292E-01  0.9998  9.4445E-04
  2.75300000000E+00  0.00000000000E+00  7.38000000000E-01  8.87857E-01   25.364  3.55095E-02  0.9998  9.4421E-04
  2.84900000000E+00  0.00000000000E+00  7.64000000000E-01  8.87647E-01   25.364  9.83292E-01  0.9998  9.4443E-04
  2.84900000000E+00  0.00000000000E+00  7.64000000000E-01  8.87857E-01   25.364  3.55095E-02  0.9998  9.4421E-04
  2.99400000000E+00  0.00000000000E+00  8.02000000000E-01  8.87665E-01   25.364  9.83292E-01  0.9998  9.4441E-04
  2.99400000000E+00  0.00000000000E+00  8.02000000000E-01  8.87857E-01   25.364  3.55095E-02  0.9998  9.4421E-04
  3.18800000000E+00  0.00000000000E+00  8.54000000000E-01  8.87685E-01   25.364  9.83292E-01  0.9998  9.4439E-04
  3.18800000000E+00  0.00000000000E+00  8.54000000000E-01  8.87857E-01   25.364  3.55095E-02  0.9998  9.4421E-04
  3.38100000000E+00  0.00000000000E+00  9.06000000000E-01  8.87700E-01   25.364  9.83292E-01  0.9998  9.4437E-04
  3.38100000000E+00  0.00000000000E+00  9.06000000000E-01  8.87857E-01   25.364  3.55095E-02  0.9998  9.4421E-04
  2.28400000000E+00  0.00000000000E+00  1.06500000000E+00  8.87542E-01   25.363  9.83292E-01  0.9998  9.4454E-04
  2.28400000000E+00  0.00000000000E+00  1.06500000000E+00  8.87868E-01   25.363  3.55095E-02  0.9998  9.4420E-04
  2.32900000000E+00  0.00000000000E+00  1.08600000000E+00  8.87546E-01   25.364  9.83292E-01  0.9998  9.4454E-04
  2.32900000000E+00  0.00000000000E+00  1.08600000000E+00  8.87857E-01   25.364  3.55095E-02  0.9998  9.4421E-04
  2.40200000000E+00  0.00000000000E+00  1.12000000000E+00  8.87560E-01   25.364  9.83292E-01  0.9998  9.4452E-04
  2.40200000000E+00  0.00000000000E+00  1.12000000000E+00  8.87857E-01   25.364  3.55095E-02  0.9998  9.4421E-04
  2.49200000000E+00  0.00000000000E+00  1.16200000000E+00  8.87576E-01   25.364  9.83292E-01  0.9998  9.4451E-04
  2.49200000000E+00  0.00000000000E+00  1.16200000000E+00  8.87857E-01   25.364  3.55095E-02  0.9998  9.4421E-04
  2.58300000000E+00  0.00000000000E+00  1.20400000000E+00  8.87589E-01   25.364  9.83292E-01  0.9998  9.4449E-04
  2.58300000000E+00  0.00000000000E+00  1.20400000000E+00  8.87857E-01   25.364  3.55095E-02  0.9998  9.4421E-04
  2.67400000000E+00  0.00000000000E+00  1.24700000000E+00  8.87601E-01   25.364  9.83292E-01  0.9998  9.4448E-04
  2.67400000000E+00  0.00000000000E+00  1.24700000000E+00  8.87857E-01   25.364  3.55095E-02  0.9998  9.4421E-04
  2.81000000000E+00  0.00000000000E+00  1.31000000000E+00  8.87615E-01   25.364  9.83292E-01  0.9998  9.4447E-04
  2.81000000000E+00  0.00000000000E+00  1.31000000000E+00  8.87857E-01   25.364  3.55095E-02  0.9998  9.4421E-04
  2.99100000000E+00  0.00000000000E+00  1.39500000000E+00  8.87630E-01   25.364  9.83292E-01  0.9998  9.4445E-04
  2.99100000000E+00  0.00000000000E+00  1.39500000000E+00  8.87857E-01   25.364  3.55095E-02  0.9998  9.4421E-04
  3.17200000000E+00  0.00000000000E+00  1.47900000000E+00  8.87639E-01   25.364  9.83292E-01  0.9998  9.4444E-04
  3.17200000000E+00  0.00000000000E+00  1.47900000000E+00  8.87857E-01   25.364  3.55095E-02  0.9998  9.4421E-04
  1.99900000000E+00  0.00000000000E+00  1.53400000000E+00  8.87501E-01   25.363  9.83292E-01  0.9998  9.4459E-04
  1.99900000000E+00  0.00000000000E+00  1.53400000000E+00  8.87868E-01   25.363  3.55095E-02  0.9998  9.4420E-04
  2.03900000000E+00  0.00000000000E+00  1.56500000000E+00  8.87503E-01   25.364  9.83292E-01  0.9998  9.4458E-04
  2.03900000000E+00  0.00000000000E+00  1.56500000000E+00  8.87857E-01   25.364  3.55095E-02  0.9998  9.4421E-04
  2.10200000000E+00  0.00000000000E+00  1.61300000000E+00  8.87513E-01   25.364  9.83292E-01  0.9998  9.4457E-04
  2.10200000000E+00  0.00000000000E+00  1.61300000000E+00  8.87857E-01   25.364  3.55095E-02  0.9998  9.4421E-04
  2.18200000000E+00  0.00000000000E+00  1.67400000000E+00  8.87524E-01   25.364  9.83292E-01  0.9998  9.4456E-04
  2.18200000000E+00  0.00000000000E+00  1.67400000000E+00  8.87857E-01   25.364  3.55095E-02  0.9998  9.4421E-04
  2.26100000000E+00  0.00000000000E+00  1.73500000000E+00  8.87532E-01   25.364  9.83292E-01  0.9998  9.4455E-04
  2.26100000000E+00  0.00000000000E+00  1.73500000000E+00  8.87857E-01   25.364  3.55095E-02  0.9998  9.4421E-04
  2.34000000000E+00  0.00000000000E+00  1.79600000000E+00  8.87537E-01   25.306  9.83288E-01  0.9998  9.4455E-04
  2.34000000000E+00  0.00000000000E+00  1.79600000000E+00  8.87552E-01   25.306  3.53458E-02  0.9998  9.4453E-04
  2.45900000000E+00  0.00000000000E+00  1.88700000000E+00  8.87544E-01   25.306  9.83288E-01  0.9998  9.4454E-04
  2.45900000000E+00  0.00000000000E+00  1.88700000000E+00  8.87551E-01   25.306  3.53458E-02  0.9998  9.4453E-04
  2.61800000000E+00  0.00000000000E+00  2.00900000000E+00  8.87551E-01   25.306  9.83288E-01  0.9998  9.4453E-04
  2.61800000000E+00  0.00000000000E+00  2.00900000000E+00  8.87551E-01   25.306  3.53458E-02  0.9998  9.4453E-04
  2.77700000000E+00  0.00000000000E+00  2.13100000000E+00  8.87556E-01   25.306  9.83288E-01  0.9998  9.4453E-04
  2.77700000000E+00  0.00000000000E+00  2.13100000000E+00  8.87551E-01   25.306  3.53458E-02  0.9998  9.4453E-04
  2.97500000000E+00  0.00000000000E+00  2.28300000000E+00  8.87558E-01   25.306  9.83288E-01  0.9998  9.4453E-04
  2.97500000000E+00  0.00000000000E+00  2.28300000000E+00  8.87551E-01   25.306  3.53458E-02  0.9998  9.4453E-04
  3.21300000000E+00  0.00000000000E+00  2.46500000000E+00  8.87558E-01   25.306  9.83288E-01  0.9998  9.4453E-04
  3.21300000000E+00  0.00000000000E+00  2.46500000000E+00  8.87551E-01   25.306  3.53458E-02  0.9998  9.4453E-04
  3.45100000000E+00  0.00000000000E+00  2.64800000000E+00  8.87555E-01   25.306  9.83288E-01  0.9998  9.4453E-04
  3.45100000000E+00  0.00000000000E+00  2.64800000000E+00  8.87551E-01   25.306  3.53458E-02  0.9998  9.4453E-04
  3.76800000000E+00  0.00000000000E+00  2.89200000000E+00  8.87547E-01   25.306  9.83288E-01  0.9998  9.4454E-04
  3.76800000000E+00  0.00000000000E+00  2.89200000000E+00  8.87551E-01   25.306  3.53458E-02  0.9998  9.4453E-04
  4.16500000000E+00  0.00000000000E+00  3.19600000000E+00  8.87533E-01   25.306  9.83288E-01  0.9998  9.4455E-04
  4.16500000000E+00  0.00000000000E+00  3.19600000000E+00  8.87551E-01   25.306  3.53458E-02  0.9998  9.4453E-04
  4.64100000000E+00  0.00000000000E+00  3.56100000000E+00  8.87511E-01   25.306  9.83288E-01  0.9998  9.4458E-04
  4.64100000000E+00  0.00000000000E+00  3.56100000000E+00  8.87551E-01   25.306  3.53458E-02  0.9998  9.4453E-04
  1.53400000000E+00  0.00000000000E+00  1.99900000000E+00  8.87460E-01   25.305  9.83288E-01  0.9998  9.4463E-04
  1.53400000000E+00  0.00000000000E+00  1.99900000000E+00  8.87562E-01   25.305  3.53458E-02  0.9998  9.4452E-04
  1.56500000000E+00  0.00000000000E+00  2.03900000000E+00  8.87460E-01   25.306  9.83288E-01  0.9998  9.4463E-04
  1.56500000000E+00  0.00000000000E+00  2.03900000000E+00  8.87551E-01   25.306  3.53458E-02  0.9998  9.4453E-04
  1.61300000000E+00  0.00000000000E+00  2.10200000000E+00  8.87467E-01   25.306  9.83288E-01  0.9998  9.4462E-04
  1.61300000000E+00  0.00000000000E+00  2.10200000000E+00  8.87551E-01   25.306  3.53458E-02  0.9998  9.4453E-04
  1.67400000000E+00  0.00000000000E+00  2.18200000000E+00  8.87474E-01   25.306  9.83288E-01  0.9998  9.4462E-04
  1.67400000000E+00  0.00000000000E+00  2.18200000000E+00  8.87551E-01   25.306  3.53458E-02  0.9998  9.4453E-04
  1.73500000000E+00  0.00000000000E+00  2.26100000000E+00  8.87480E-01   25.306  9.83288E-01  0.9998  9.4461E-04
  1.73500000000E+00  0.00000000000E+00  2.26100000000E+00  8.87551E-01   25.306  3.53458E-02  0.9998  9.4453E-04
  1.79600000000E+00  0.00000000000E+00  2.34000000000E+00  8.87486E-01   25.306  9.83288E-01  0.9998  9.4460E-04
  1.79600000000E+00  0.00000000000E+00  2.34000000000E+00  8.87551E-01   25.306  3.53458E-02  0.9998  9.4453E-04
  1.88700000000E+00  0.00000000000E+00  2.45900000000E+00  8.87492E-01   25.306  9.83288E-01  0.9998  9.4460E-04
  1.88700000000E+00  0.00000000000E+00  2.45900000000E+00  8.87551E-01   25.306  3.53458E-02  0.9998  9.4453E-04
  2.00900000000E+00  0.00000000000E+00  2.61800000000E+00  8.87497E-01   25.306  9.83288E-01  0.9998  9.4459E-04
  2.00900000000E+00  0.00000000000E+00  2.61800000000E+00  8.87551E-01   25.306  3.53458E-02  0.9998  9.4453E-04
  2.13100000000E+00  0.00000000000E+00  2.77700000000E+00  8.87500E-01   25.306  9.83288E-01  0.9998  9.4459E-04
  2.13100000000E+00  0.00000000000E+00  2.77700000000E+00  8.87551E-01   25.306  3.53458E-02  0.9998  9.4453E-04
  2.28300000000E+00  0.00000000000E+00  2.97500000000E+00  8.87501E-01   25.306  9.83288E-01  0.9998  9.4459E-04
  2.28300000000E+00  0.00000000000E+00  2.97500000000E+00  8.87551E-01   25.306  3.53458E-02  0.9998  9.4453E-04
  2.46500000000E+00  0.00000000000E+00  3.21300000000E+00  8.87498E-01   25.306  9.83288E-01  0.9998  9.4459E-04
  2.46500000000E+00  0.00000000000E+00  3.21300000000E+00  8.87551E-01   25.306  3.53458E-02  0.9998  9.4453E-04
  2.64800000000E+00  0.00000000000E+00  3.45100000000E+00  8.87492E-01   25.306  9.83288E-01  0.9998  9.4460E-04
  2.64800000000E+00  0.00000000000E+00  3.45100000000E+00  8.87551E-01   25.306  3.53458E-02  0.9998  9.4453E-04
  2.89200000000E+00  0.00000000000E+00  3.76800000000E+00  8.87478E-01   25.306  9.83288E-01  0.9998  9.4461E-04
  2.89200000000E+00  0.00000000000E+00  3.76800000000E+00  8.87551E-01   25.306  3.53458E-02  0.9998  9.4453E-04
  3.19600000000E+00  0.00000000000E+00  4.16500000000E+00  8.87453E-01   25.306  9.83288E-01  0.9998  9.4464E-04
  3.19600000000E+00  0.00000000000E+00  4.16500000000E+00  8.87551E-01   25.306  3.53458E-02  0.9998  9.4453E-04
  3.56100000000E+00  0.00000000000E+00  4.64100000000E+00  8.87413E-01   25.306  9.83288E-01  0.9998  9.4468E-04
  3.56100000000E+00  0.00000000000E+00  4.64100000000E+00  8.87551E-01   25.306  3.53458E-02  0.9998  9.4453E-04
  4.01800000000E+00  0.00000000000E+00  5.23600000000E+00  8.87331E-01   25.248  9.83284E-01  0.9998  9.4477E-04
  4.01800000000E+00  0.00000000000E+00  5.23600000000E+00  8.87246E-01   25.248  3.52272E-02  0.9998  9.4486E-04
  9.64000000000E-01  0.00000000000E+00  2.32800000000E+00  8.87432E-01   25.305  9.83288E-01  0.9998  9.4466E-04
  9.64000000000E-01  0.00000000000E+00  2.32800000000E+00  8.87562E-01   25.305  3.53458E-02  0.9998  9.4452E-04
  9.83000000000E-01  0.00000000000E+00  2.37400000000E+00  8.87432E-01   25.306  9.83288E-01  0.9998  9.4466E-04
  9.83000000000E-01  0.00000000000E+00  2.37400000000E+00  8.87551E-01   25.306  3.53458E-02  0.9998  9.4453E-04
  1.01400000000E+00  0.00000000000E+00  2.44800000000E+00  8.87438E-01   25.306  9.83288E-01  0.9998  9.4465E-04
  1.01400000000E+00  0.00000000000E+00  2.44800000000E+00  8.87551E-01   25.306  3.53458E-02  0.9998  9.4453E-04
  1.05200000000E+00  0.00000000000E+00  2.54100000000E+00  8.87445E-01   25.306  9.83288E-01  0.9998  9.4465E-04
  1.05200000000E+00  0.00000000000E+00  2.54100000000E+00  8.87551E-01   25.306  3.53458E-02  0.9998  9.4453E-04
  1.09100000000E+00  0.00000000000E+00  2.63300000000E+00  8.87451E-01   25.306  9.83288E-01  0.9998  9.4464E-04
  1.09100000000E+00  0.00000000000E+00  2.63300000000E+00  8.87551E-01   25.306  3.53458E-02  0.9998  9.4453E-04
  1.12900000000E+00  0.00000000000E+00  2.72500000000E+00  8.87455E-01   25.306  9.83288E-01  0.9998  9.4464E-04