Title="TOUGHREACT V4.13omp : Mineral Saturation Index (log[Q/K])"
Variables= "X(m)"   "Y(m)"   "Z(m)"       "T(C)"         "gypsum"        "calcite"   "microcline-b"     "albite-low"      "anorthite"   "smect-ca-cal"   "smect-na-cal"   "smect-mg-cal"         "illite"      "tridymite"     "cristoba-a"         "quartz"    "hydglassfe3"   "stell/10-r02"    "heul/10-r02"    "mord/10-r02"    "clpt/10-r02"    "sio2(amor.)"       "fluorite"      "sepiolite"          "nano3"           "kno3"         "halite"        "sylvite"
Zone T= "3.15569000E+07 sec" I=    4490 J=       1 K=       1 F=Point
  1.99900000000E+00  0.00000000000E+00 -1.53400000000E+00     87.779 -1.752106E+00  2.028039E-01 -2.642975E-01 -2.133984E-01 -3.722601E+00 -1.655765E-01 -5.816817E-01 -6.106694E-02  5.542210E-01  3.560515E-01  8.286669E-02  5.183204E-01 -3.837267E+00  2.244644E-01 -4.977130E-01 -9.360368E-01 -6.013629E-01 -3.124162E-01 -2.272566E+00  2.952598E+00 -8.102752E+00 -7.261885E+00 -6.603418E+00 -7.173694E+00
  1.99900000000E+00  0.00000000000E+00 -1.53400000000E+00     87.773 -1.693682E+00  2.028380E-01 -5.080896E-02 -2.673225E-03 -3.498920E+00  1.905012E-01 -2.203478E-01  2.940372E-01  9.434552E-01  3.964164E-01  1.232175E-01  5.586810E-01 -3.802275E+00  3.945581E-01 -3.248057E-01 -7.663442E-01 -4.324502E-01 -2.720759E-01 -2.171930E+00  2.764703E+00 -8.033853E+00 -7.192908E+00 -6.534649E+00 -7.102194E+00
  2.03900000000E+00  0.00000000000E+00 -1.56500000000E+00     86.719 -1.728075E+00  2.085462E-01 -2.509305E-01 -2.050198E-01 -4.022436E+00 -2.588666E-01 -6.618555E-01 -1.537805E-01  4.155929E-01  4.100805E-01  1.345868E-01  5.716581E-01 -3.836483E+00  2.224169E-01 -4.905546E-01 -8.753237E-01 -5.654880E-01 -2.624576E-01 -2.208350E+00  3.003077E+00 -8.036124E+00 -7.182141E+00 -6.536878E+00 -7.107474E+00
  2.03900000000E+00  0.00000000000E+00 -1.56500000000E+00     86.719 -1.702975E+00  2.085470E-01 -4.518970E-02 -2.426298E-03 -3.634520E+00  1.640887E-01 -2.413683E-01  2.654804E-01  8.997387E-01  4.186527E-01  1.431584E-01  5.802302E-01 -3.810222E+00  3.928711E-01 -3.193107E-01 -7.406476E-01 -4.151661E-01 -2.538865E-01 -2.177381E+00  2.696956E+00 -8.029004E+00 -7.175017E+00 -6.529793E+00 -7.097243E+00
  2.10200000000E+00  0.00000000000E+00 -1.61300000000E+00     85.052 -1.734317E+00  2.179106E-01 -2.566177E-01 -2.106489E-01 -4.095253E+00 -2.316766E-01 -6.334474E-01 -1.291096E-01  4.325315E-01  4.193538E-01  1.402660E-01  5.799009E-01 -3.856715E+00  2.232835E-01 -4.806637E-01 -8.624962E-01 -5.515058E-01 -2.595714E-01 -2.214394E+00  2.835762E+00 -8.052260E+00 -7.177480E+00 -6.552990E+00 -7.132057E+00
  2.10200000000E+00  0.00000000000E+00 -1.61300000000E+00     85.052 -1.711601E+00  2.179111E-01 -4.580241E-02 -2.704211E-03 -3.693925E+00  1.940003E-01 -2.101328E-01  2.930332E-01  9.205509E-01  4.270663E-01  1.479780E-01  5.876132E-01 -3.830064E+00  3.973026E-01 -3.057346E-01 -7.257753E-01 -3.985280E-01 -2.518598E-01 -2.186896E+00  2.560703E+00 -8.046529E+00 -7.171745E+00 -6.547290E+00 -7.123487E+00
  2.18200000000E+00  0.00000000000E+00 -1.67400000000E+00     83.017 -1.726652E+00  2.299117E-01 -2.656388E-01 -2.189274E-01 -4.167376E+00 -1.948032E-01 -5.962369E-01 -9.517722E-02  4.576272E-01  4.276386E-01  1.442268E-01  5.870223E-01 -3.882594E+00  2.250199E-01 -4.682167E-01 -8.500670E-01 -5.357500E-01 -2.590566E-01 -2.198127E+00  2.646129E+00 -8.064147E+00 -7.163707E+00 -6.564870E+00 -7.155054E+00
  2.18200000000E+00  0.00000000000E+00 -1.67400000000E+00     83.017 -1.706251E+00  2.299122E-01 -4.755158E-02 -3.188288E-03 -3.744650E+00  2.403040E-01 -1.634999E-01  3.366409E-01  9.574840E-01  4.339129E-01  1.505008E-01  5.932965E-01 -3.855418E+00  4.045855E-01 -2.876304E-01 -7.104339E-01 -3.787642E-01 -2.527829E-01 -2.173978E+00  2.398381E+00 -8.060126E+00 -7.159684E+00 -6.560877E+00 -7.148714E+00
  2.26100000000E+00  0.00000000000E+00 -1.73500000000E+00     81.049 -1.714782E+00  2.421444E-01 -2.742532E-01 -2.271205E-01 -4.231948E+00 -1.608481E-01 -5.621432E-01 -6.417749E-02  4.806606E-01  4.344608E-01  1.469333E-01  5.928186E-01 -3.908203E+00  2.265799E-01 -4.562224E-01 -8.392207E-01 -5.211324E-01 -2.597216E-01 -2.174971E+00  2.474493E+00 -8.072766E+00 -7.147218E+00 -6.573489E+00 -7.174241E+00
  2.26100000000E+00  0.00000000000E+00 -1.73500000000E+00     81.049 -1.695598E+00  2.421451E-01 -4.932018E-02 -3.743868E-03 -3.788254E+00  2.865592E-01 -1.172078E-01  3.801023E-01  9.952826E-01  4.394873E-01  1.519596E-01  5.978450E-01 -3.880484E+00  4.119039E-01 -2.698255E-01 -6.964685E-01 -3.599181E-01 -2.546955E-01 -2.152648E+00  2.241066E+00 -8.070008E+00 -7.144459E+00 -6.570758E+00 -7.169954E+00
  2.34000000000E+00  0.00000000000E+00 -1.79600000000E+00     79.155 -1.702488E+00  2.545415E-01 -2.822091E-01 -2.349459E-01 -4.290750E+00 -1.296419E-01 -5.308185E-01 -3.590697E-02  5.018826E-01  4.401311E-01  1.487021E-01  5.975939E-01 -3.933336E+00  2.278351E-01 -4.447882E-01 -8.296303E-01 -5.075842E-01 -2.612356E-01 -2.150901E+00  2.317345E+00 -8.080438E+00 -7.130438E+00 -6.581165E+00 -7.191923E+00
  2.34000000000E+00  0.00000000000E+00 -1.79600000000E+00     79.154 -1.683769E+00  2.545365E-01 -5.100648E-02 -4.359955E-03 -3.826916E+00  3.313499E-01 -7.247252E-02  4.220304E-01  1.032516E+00  4.440273E-01  1.525982E-01  6.014901E-01 -3.905103E+00  4.188252E-01 -2.527176E-01 -6.838134E-01 -3.422016E-01 -2.573396E-01 -2.129403E+00  2.089380E+00 -8.078686E+00 -7.128686E+00 -6.579440E+00 -7.189581E+00
  2.45900000000E+00  0.00000000000E+00 -1.88700000000E+00     76.454 -1.685213E+00  2.733099E-01 -2.934625E-01 -2.460120E-01 -4.367877E+00 -8.607717E-02 -4.871289E-01  3.363500E-03  5.322787E-01  4.464737E-01  1.495852E-01  6.028183E-01 -3.970073E+00  2.291743E-01 -4.287236E-01 -8.176740E-01 -4.893373E-01 -2.650968E-01 -2.116443E+00  2.102573E+00 -8.091830E+00 -7.106479E+00 -6.592563E+00 -7.217774E+00
  2.45900000000E+00  0.00000000000E+00 -1.88700000000E+00     76.453 -1.666542E+00  2.733075E-01 -5.332819E-02 -5.373029E-03 -3.877715E+00  3.946345E-01 -9.288515E-03  4.810351E-01  1.085953E+00  4.492031E-01  1.523144E-01  6.055477E-01 -3.941009E+00  4.281991E-01 -2.286094E-01 -6.670933E-01 -3.178000E-01 -2.623676E-01 -2.095170E+00  1.875635E+00 -8.090957E+00 -7.105606E+00 -6.591717E+00 -7.217433E+00
  2.61800000000E+00  0.00000000000E+00 -2.00900000000E+00     73.110 -1.665364E+00  2.984697E-01 -3.057489E-01 -2.592911E-01 -4.460484E+00 -3.597763E-02 -4.366023E-01  4.800105E-02  5.672087E-01  4.530592E-01  1.495801E-01  6.082785E-01 -4.016545E+00  2.301315E-01 -4.090533E-01 -8.038218E-01 -4.674397E-01 -2.710805E-01 -2.074988E+00  1.851927E+00 -8.106209E+00 -7.076279E+00 -6.606951E+00 -7.249138E+00
  2.61800000000E+00  0.00000000000E+00 -2.00900000000E+00     73.110 -1.646288E+00  2.984700E-01 -5.579509E-02 -6.866008E-03 -3.937317E+00  4.699549E-01  6.608757E-02  5.508847E-01  1.150164E+00  4.540708E-01  1.505917E-01  6.092901E-01 -3.986630E+00  4.387103E-01 -1.994308E-01 -6.480236E-01 -2.888397E-01 -2.700690E-01 -2.053357E+00  1.620522E+00 -8.106418E+00 -7.076488E+00 -6.607189E+00 -7.251848E+00
  2.77700000000E+00  0.00000000000E+00 -2.13100000000E+00     70.040 -1.648158E+00  3.236155E-01 -3.168598E-01 -2.712527E-01 -4.540301E+00  8.696401E-03 -3.914017E-01  8.762442E-02  5.989328E-01  4.574187E-01  1.480487E-01  6.118585E-01 -4.060420E+00  2.304129E-01 -3.911887E-01 -7.925911E-01 -4.482967E-01 -2.782095E-01 -2.037531E+00  1.632915E+00 -8.119852E+00 -7.048148E+00 -6.620604E+00 -7.278759E+00
  2.77700000000E+00  0.00000000000E+00 -2.13100000000E+00     70.039 -1.628892E+00  3.236178E-01 -5.777897E-02 -8.486126E-03 -3.989724E+00  5.362152E-01  1.326133E-01  6.120541E-01  1.207086E+00  4.571987E-01  1.478285E-01  6.116385E-01 -4.029659E+00  4.473216E-01 -1.732402E-01 -6.319054E-01 -2.633415E-01 -2.784297E-01 -2.015732E+00  1.396800E+00 -8.120866E+00 -7.049162E+00 -6.621649E+00 -7.283490E+00
  2.97500000000E+00  0.00000000000E+00 -2.28300000000E+00     66.533 -1.629440E+00  3.549299E-01 -3.311188E-01 -2.847765E-01 -4.621031E+00  6.069395E-02 -3.388021E-01  1.338636E-01  6.373543E-01  4.595741E-01  1.436668E-01  6.134236E-01 -4.112244E+00  2.300673E-01 -3.710797E-01 -7.825169E-01 -4.281506E-01 -2.891105E-01 -1.995276E+00  1.392510E+00 -8.136365E+00 -7.015954E+00 -6.637131E+00 -7.315605E+00
  2.97500000000E+00  0.00000000000E+00 -2.28300000000E+00     66.533 -1.610822E+00  3.549340E-01 -5.967208E-02 -1.060896E-02 -4.048594E+00  6.071682E-01  2.042256E-01  6.771880E-01  1.268060E+00  4.594908E-01  1.435834E-01  6.133403E-01 -4.080052E+00  4.558886E-01 -1.440479E-01 -6.147993E-01 -2.353563E-01 -2.891940E-01 -1.974208E+00  1.158392E+00 -8.137551E+00 -7.017139E+00 -6.638348E+00 -7.319543E+00
  3.21300000000E+00  0.00000000000E+00 -2.46500000000E+00     62.738 -1.611262E+00  3.922515E-01 -3.444485E-01 -2.988315E-01 -4.710559E+00  1.111037E-01 -2.871595E-01  1.779584E-01  6.735782E-01  4.614229E-01  1.386658E-01  6.149968E-01 -4.169465E+00  2.290781E-01 -3.491875E-01 -7.713390E-01 -4.062629E-01 -3.013259E-01 -1.951248E+00  1.153696E+00 -8.153925E+00 -6.979534E+00 -6.654707E+00 -7.354127E+00
  3.21300000000E+00  0.00000000000E+00 -2.46500000000E+00     62.738 -1.594026E+00  3.922568E-01 -6.054284E-02 -1.307253E-02 -4.118504E+00  6.737191E-01  2.722575E-01  7.374911E-01  1.323469E+00  4.618031E-01  1.390460E-01  6.153770E-01 -4.135746E+00  4.635931E-01 -1.132273E-01 -5.962890E-01 -2.055883E-01 -3.009457E-01 -1.931726E+00  9.317306E-01 -8.155040E+00 -6.980649E+00 -6.655853E+00 -7.357127E+00
  3.76800000000E+00  0.00000000000E+00 -2.89200000000E+00     55.340 -1.584860E+00  4.766466E-01 -3.496483E-01 -3.232174E-01 -4.973181E+00  1.538346E-01 -2.376611E-01  2.076541E-01  6.803115E-01  4.802770E-01  1.448407E-01  6.344121E-01 -4.279431E+00  2.272400E-01 -3.031842E-01 -7.289198E-01 -3.512126E-01 -3.097012E-01 -1.874238E+00  8.066797E-01 -8.180036E+00 -6.896487E+00 -6.680847E+00 -7.404805E+00
  3.76800000000E+00  0.00000000000E+00 -2.89200000000E+00     55.340 -1.570969E+00  4.766533E-01 -5.645364E-02 -1.702445E-02 -4.304894E+00  7.554931E-01  3.604472E-01  8.073723E-01  1.376192E+00  4.724225E-01  1.369860E-01  6.265576E-01 -4.245968E+00  4.752222E-01 -5.381407E-02 -5.521289E-01 -1.441000E-01 -3.175561E-01 -1.858237E+00  6.272569E-01 -8.184114E+00 -6.900564E+00 -6.684950E+00 -7.421907E+00
  4.16500000000E+00  0.00000000000E+00 -3.19600000000E+00     50.968 -1.570903E+00  5.348270E-01 -3.561559E-01 -3.371285E-01 -5.139518E+00  1.652727E-01 -2.211531E-01  2.114189E-01  6.658402E-01  4.922598E-01  1.497425E-01  6.474174E-01 -4.346623E+00  2.262424E-01 -2.747877E-01 -7.014455E-01 -3.170720E-01 -3.137154E-01 -1.829423E+00  6.587021E-01 -8.193557E+00 -6.842914E+00 -6.694385E+00 -7.437757E+00
  4.16500000000E+00  0.00000000000E+00 -3.19600000000E+00     50.968 -1.561917E+00  5.348325E-01 -5.224159E-02 -1.815632E-02 -4.448075E+00  7.749554E-01  3.858348E-01  8.200400E-01  1.371757E+00  4.835310E-01  1.410135E-01  6.386886E-01 -4.311992E+00  4.816360E-01 -1.757193E-02 -5.191055E-01 -1.038543E-01 -3.224446E-01 -1.818980E+00  5.392836E-01 -8.197509E+00 -6.846864E+00 -6.698353E+00 -7.456784E+00
  4.64100000000E+00  0.00000000000E+00 -3.56100000000E+00     46.538 -1.558911E+00  6.010368E-01 -3.652163E-01 -3.504778E-01 -5.332045E+00  1.572815E-01 -2.226034E-01  1.957440E-01  6.245877E-01  5.081996E-01  1.588141E-01  6.649233E-01 -4.415614E+00  2.258444E-01 -2.443923E-01 -6.680191E-01 -2.789630E-01 -3.139300E-01 -1.785781E+00  5.759503E-01 -8.204366E+00 -6.783666E+00 -6.705207E+00 -7.472254E+00
  4.64100000000E+00  0.00000000000E+00 -3.56100000000E+00     46.538 -1.556431E+00  6.010393E-01 -4.671507E-02 -1.771368E-02 -4.628993E+00  7.670048E-01  3.858717E-01  8.054757E-01  1.331440E+00  5.009704E-01  1.515848E-01  6.576942E-01 -4.378949E+00  4.889044E-01  2.119812E-02 -4.770277E-01 -5.777522E-02 -3.211595E-01 -1.782862E+00  5.401730E-01 -8.207163E+00 -6.786461E+00 -6.708007E+00 -7.489317E+00
  2.28400000000E+00  0.00000000000E+00 -1.06500000000E+00     97.975 -1.280852E+00  1.864128E-01  1.159329E+00  1.218695E+00 -2.482065E+00  1.359793E+00  1.008740E+00  1.475583E+00  2.177958E+00  6.571314E-01  3.910280E-01  8.216555E-01 -3.552930E+00  1.304498E+00  5.942868E-01  2.044528E-01  4.882697E-01  9.962035E-04 -1.384325E+00  4.782213E+00 -7.396265E+00 -6.594507E+00 -5.898518E+00 -6.461429E+00
  2.28400000000E+00  0.00000000000E+00 -1.06500000000E+00     97.986 -1.524972E+00  1.549889E-01 -3.426767E-02 -4.301885E-04 -3.144517E+00 -1.509310E-01 -5.727772E-01 -7.118642E-02  6.462695E-01  3.500269E-01  1.000303E-01  5.203706E-01 -3.683873E+00  3.780267E-01 -3.966142E-01 -8.448324E-01 -5.205371E-01 -2.788314E-01 -1.957307E+00  3.511543E+00 -7.863156E+00 -7.144672E+00 -6.364294E+00 -6.867943E+00
  2.32900000000E+00  0.00000000000E+00 -1.08600000000E+00     96.430 -1.476165E+00  1.782091E-01 -2.037898E-01 -1.539163E-01 -4.527181E+00 -8.473184E-01 -1.221778E+00 -7.377340E-01 -2.954486E-01  5.262290E-01  2.639773E-01  6.920612E-01 -3.725409E+00  2.210308E-01 -5.159193E-01 -7.572323E-01 -5.261792E-01 -1.232895E-01 -1.758012E+00  4.559377E+00 -7.650025E+00 -6.868867E+00 -6.151553E+00 -6.696629E+00
  2.32900000000E+00  0.00000000000E+00 -1.08600000000E+00     96.435 -1.592879E+00  1.614477E-01 -3.628541E-02 -8.194812E-04 -3.252755E+00 -7.485129E-02 -4.920380E-01  6.662911E-03  7.187650E-01  3.657399E-01  1.121093E-01  5.346928E-01 -3.699315E+00  3.762949E-01 -3.891909E-01 -8.257420E-01 -5.054824E-01 -2.691853E-01 -2.055326E+00  3.159379E+00 -7.911668E+00 -7.175032E+00 -6.412672E+00 -6.925304E+00
  2.40200000000E+00  0.00000000000E+00 -1.12000000000E+00     94.156 -1.611138E+00  1.714419E-01 -1.992439E-01 -1.544297E-01 -4.292059E+00 -7.869096E-01 -1.166404E+00 -6.792986E-01 -1.794659E-01  4.790297E-01  2.201292E-01  6.460441E-01 -3.718766E+00  2.095035E-01 -5.350794E-01 -8.137487E-01 -5.680980E-01 -1.647814E-01 -1.991533E+00  4.427813E+00 -7.771369E+00 -7.007771E+00 -6.272576E+00 -6.805480E+00
  2.40200000000E+00  0.00000000000E+00 -1.12000000000E+00     94.175 -1.681834E+00  1.713534E-01 -3.939203E-02 -1.175884E-03 -3.427525E+00 -5.505322E-03 -4.151270E-01  8.696423E-02  7.695246E-01  3.915067E-01  1.326490E-01  5.585365E-01 -3.721445E+00  3.730924E-01 -3.787596E-01 -7.950943E-01 -4.822870E-01 -2.522318E-01 -2.176031E+00  2.971566E+00 -7.968326E+00 -7.204950E+00 -6.469196E+00 -6.995412E+00
  2.49200000000E+00  0.00000000000E+00 -1.16200000000E+00     91.708 -1.781310E+00  1.828644E-01 -2.278957E-01 -1.825901E-01 -3.803801E+00 -3.857170E-01 -7.892290E-01 -2.801087E-01  3.236422E-01  3.789927E-01  1.145287E-01  5.440668E-01 -3.777650E+00  2.144727E-01 -5.236120E-01 -9.170266E-01 -6.118415E-01 -2.743186E-01 -2.307114E+00  3.515607E+00 -8.037564E+00 -7.244631E+00 -6.538273E+00 -7.083550E+00
  2.49200000000E+00  0.00000000000E+00 -1.16200000000E+00     91.707 -1.731509E+00  1.828695E-01 -4.160733E-02 -1.622169E-03 -3.505569E+00  6.074127E-02 -3.462725E-01  1.592751E-01  8.245347E-01  4.009527E-01  1.364852E-01  5.660256E-01 -3.750417E+00  3.765102E-01 -3.618704E-01 -7.779965E-01 -4.622714E-01 -2.523646E-01 -2.242969E+00  2.871947E+00 -8.017324E+00 -7.224371E+00 -6.518103E+00 -7.058067E+00
  2.58300000000E+00  0.00000000000E+00 -1.20400000000E+00     89.482 -1.771651E+00  1.939103E-01 -2.373801E-01 -1.913234E-01 -3.943713E+00 -3.266609E-01 -7.280359E-01 -2.207185E-01  3.632112E-01  4.009131E-01  1.314753E-01  5.643505E-01 -3.801623E+00  2.174381E-01 -5.090500E-01 -8.900949E-01 -5.870240E-01 -2.610013E-01 -2.283413E+00  3.228859E+00 -8.040490E+00 -7.220523E+00 -6.541205E+00 -7.098180E+00
  2.58300000000E+00  0.00000000000E+00 -1.20400000000E+00     89.481 -1.735448E+00  1.939107E-01 -4.354670E-02 -1.943132E-03 -3.589298E+00  1.078724E-01 -2.973350E-01  2.079266E-01  8.567734E-01  4.136060E-01  1.441673E-01  5.770431E-01 -3.775787E+00  3.829349E-01 -3.435722E-01 -7.568743E-01 -4.393229E-01 -2.483099E-01 -2.240155E+00  2.754449E+00 -8.031899E+00 -7.211927E+00 -6.532661E+00 -7.085184E+00
  2.67400000000E+00  0.00000000000E+00 -1.24700000000E+00     87.462 -1.757525E+00  2.045043E-01 -2.475442E-01 -2.006137E-01 -4.035477E+00 -2.768294E-01 -6.778859E-01 -1.724656E-01  3.988214E-01  4.139715E-01  1.400941E-01  5.760307E-01 -3.825534E+00  2.204131E-01 -4.958779E-01 -8.728953E-01 -5.681927E-01 -2.557144E-01 -2.256972E+00  2.993177E+00 -8.046527E+00 -7.201746E+00 -6.547248E+00 -7.115140E+00
  2.67400000000E+00  0.00000000000E+00 -1.24700000000E+00     87.462 -1.728604E+00  2.045040E-01 -4.557891E-02 -2.311410E-03 -3.650599E+00  1.544901E-01 -2.500523E-01  2.539840E-01  8.915776E-01  4.229131E-01  1.490354E-01  5.849722E-01 -3.799648E+00  3.903769E-01 -3.255833E-01 -7.392520E-01 -4.184581E-01 -2.467735E-01 -2.223385E+00  2.620482E+00 -8.041605E+00 -7.196822E+00 -6.542362E+00 -7.106592E+00
  2.81000000000E+00  0.00000000000E+00 -1.31000000000E+00     84.765 -1.736492E+00  2.195670E-01 -2.605652E-01 -2.132358E-01 -4.139315E+00 -2.184333E-01 -6.196202E-01 -1.176033E-01  4.403998E-01  4.273672E-01  1.476645E-01  5.877437E-01 -3.858942E+00  2.239738E-01 -4.785827E-01 -8.540567E-01 -5.453695E-01 -2.526573E-01 -2.219258E+00  2.705593E+00 -8.055735E+00 -7.177348E+00 -6.556461E+00 -7.138347E+00
  2.81000000000E+00  0.00000000000E+00 -1.31000000000E+00     84.764 -1.712849E+00  2.195668E-01 -4.842205E-02 -2.929610E-03 -3.719723E+00  2.200529E-01 -1.843293E-01  3.169923E-01  9.433370E-01  4.331313E-01  1.534283E-01  5.935076E-01 -3.832550E+00  4.012420E-01 -3.006899E-01 -7.174885E-01 -3.909752E-01 -2.468935E-01 -2.192228E+00  2.413207E+00 -8.053097E+00 -7.174709E+00 -6.553854E+00 -7.133903E+00
  2.99100000000E+00  0.00000000000E+00 -1.39500000000E+00     81.674 -1.712395E+00  2.381952E-01 -2.750293E-01 -2.274487E-01 -4.244375E+00 -1.590634E-01 -5.605393E-01 -6.315683E-02  4.822041E-01  4.393126E-01  1.530861E-01  5.979858E-01 -3.898693E+00  2.272158E-01 -4.593028E-01 -8.359322E-01 -5.213980E-01 -2.524931E-01 -2.175753E+00  2.404064E+00 -8.067176E+00 -7.149640E+00 -6.567911E+00 -7.165875E+00
  2.99100000000E+00  0.00000000000E+00 -1.39500000000E+00     81.674 -1.691346E+00  2.381884E-01 -5.178268E-02 -3.826785E-03 -3.787721E+00  2.974203E-01 -1.072550E-01  3.900131E-01  1.006959E+00  4.424765E-01  1.562498E-01  6.011497E-01 -3.871510E+00  4.138712E-01 -2.718761E-01 -6.946891E-01 -3.604056E-01 -2.493295E-01 -2.151906E+00  2.153979E+00 -8.066137E+00 -7.148600E+00 -6.566900E+00 -7.165239E+00
  3.17200000000E+00  0.00000000000E+00 -1.47900000000E+00     79.045 -1.691941E+00  2.552765E-01 -2.888212E-01 -2.394832E-01 -4.321236E+00 -1.096946E-01 -5.116030E-01 -1.816455E-02  5.177609E-01  4.464582E-01  1.548052E-01  6.038720E-01 -3.933927E+00  2.293066E-01 -4.433937E-01 -8.237466E-01 -5.030346E-01 -2.553236E-01 -2.138303E+00  2.162570E+00 -8.077788E+00 -7.126364E+00 -6.578532E+00 -7.191939E+00
  3.17200000000E+00  0.00000000000E+00 -1.47900000000E+00     79.045 -1.672037E+00  2.552729E-01 -5.488063E-02 -4.791752E-03 -3.837651E+00  3.647075E-01 -4.044381E-02  4.530543E-01  1.064034E+00  4.484986E-01  1.568456E-01  6.059124E-01 -3.905743E+00  4.243294E-01 -2.474770E-01 -6.771988E-01 -3.354499E-01 -2.532833E-01 -2.115914E+00  1.926246E+00 -8.077626E+00 -7.126202E+00 -6.578398E+00 -7.192556E+00
  2.40300000000E+00  0.00000000000E+00 -7.58000000000E-01    100.766 -1.238618E+00  1.814887E-01  1.496194E+00  1.550557E+00 -2.086601E+00  1.738503E+00  1.398580E+00  1.854637E+00  2.600696E+00  7.072608E-01  4.434427E-01  8.725543E-01 -3.488307E+00  1.556020E+00  8.466086E-01  4.489311E-01  7.297982E-01  5.505886E-02 -1.296190E+00  5.188135E+00 -7.303174E+00 -6.513693E+00 -5.805710E+00 -6.358645E+00
  2.40300000000E+00  0.00000000000E+00 -7.58000000000E-01    100.766 -1.546463E+00  1.440394E-01 -3.234459E-02 -3.272151E-04 -2.960597E+00 -1.970410E-01 -6.256299E-01 -1.351294E-01  6.327164E-01  3.210943E-01  7.771620E-02  4.940786E-01 -3.657340E+00  3.759785E-01 -4.143118E-01 -8.819547E-01 -5.516388E-01 -2.968349E-01 -2.020054E+00  3.411094E+00 -7.892160E+00 -7.205863E+00 -6.393232E+00 -6.882021E+00
  2.45100000000E+00  0.00000000000E+00 -7.73000000000E-01     99.392 -1.508074E+00  1.761650E-01 -1.748099E-01 -1.249088E-01 -4.517151E+00 -8.394591E-01 -1.210321E+00 -7.288284E-01 -2.843418E-01  5.329691E-01  2.717106E-01  6.991474E-01 -3.714978E+00  2.360675E-01 -5.016499E-01 -7.370337E-01 -5.105106E-01 -1.148533E-01 -1.803806E+00  4.628868E+00 -7.656599E+00 -6.880679E+00 -6.158088E+00 -6.701070E+00
  2.45100000000E+00  0.00000000000E+00 -7.73000000000E-01     99.394 -1.631993E+00  1.493487E-01 -3.362580E-02 -5.582143E-04 -3.079586E+00 -1.439799E-01 -5.661568E-01 -7.602679E-02  6.801770E-01  3.370556E-01  9.039404E-02  5.087130E-01 -3.670267E+00  3.693183E-01 -4.120668E-01 -8.649304E-01 -5.409019E-01 -2.862766E-01 -2.140716E+00  3.191769E+00 -7.944002E+00 -7.241873E+00 -6.444927E+00 -6.941179E+00
  2.52700000000E+00  0.00000000000E+00 -7.97000000000E-01     97.346 -1.585761E+00  1.683689E-01 -1.880873E-01 -1.409748E-01 -4.453076E+00 -9.682751E-01 -1.338104E+00 -8.585061E-01 -4.013285E-01  5.107961E-01  2.534748E-01  6.783814E-01 -3.701091E+00  2.062497E-01 -5.391120E-01 -7.802219E-01 -5.546094E-01 -1.303411E-01 -1.932662E+00  4.961309E+00 -7.701594E+00 -6.946157E+00 -6.202948E+00 -6.734844E+00
  2.52700000000E+00  0.00000000000E+00 -7.97000000000E-01     97.357 -1.705831E+00  1.575758E-01 -3.652192E-02 -8.748031E-04 -3.295866E+00 -7.143889E-02 -4.843986E-01  7.653915E-03  7.316750E-01  3.710671E-01  1.195928E-01  5.408401E-01 -3.687064E+00  3.647572E-01 -4.039210E-01 -8.269911E-01 -5.153096E-01 -2.602523E-01 -2.235141E+00  2.919063E+00 -7.979193E+00 -7.253370E+00 -6.480025E+00 -6.988457E+00
  2.62300000000E+00  0.00000000000E+00 -8.27000000000E-01     95.076 -1.709021E+00  1.673365E-01 -1.928985E-01 -1.489007E-01 -4.121604E+00 -7.693251E-01 -1.151224E+00 -6.618726E-01 -1.272565E-01  4.452637E-01  1.884795E-01  6.130451E-01 -3.715259E+00  2.030398E-01 -5.458550E-01 -8.516394E-01 -5.956742E-01 -1.949662E-01 -2.155574E+00  4.487656E+00 -7.853651E+00 -7.100974E+00 -6.354661E+00 -6.882324E+00
  2.62300000000E+00  0.00000000000E+00 -8.27000000000E-01     95.093 -1.745487E+00  1.672560E-01 -3.914552E-02 -1.160587E-03 -3.418633E+00 -1.377072E-02 -4.220271E-01  7.778876E-02  7.703880E-01  3.888716E-01  1.321281E-01  5.566680E-01 -3.710857E+00  3.658151E-01 -3.901055E-01 -8.028989E-01 -4.935533E-01 -2.512896E-01 -2.280252E+00  2.906185E+00 -8.007333E+00 -7.254865E+00 -6.508113E+00 -7.029679E+00
  2.71800000000E+00  0.00000000000E+00 -8.57000000000E-01     93.150 -1.830978E+00  1.760490E-01 -2.255333E-01 -1.801927E-01 -3.646411E+00 -3.730484E-01 -7.809097E-01 -2.693846E-01  3.647996E-01  3.514920E-01  9.029324E-02  5.176913E-01 -3.766121E+00  2.121110E-01 -5.341733E-01 -9.492896E-01 -6.360607E-01 -2.962284E-01 -2.399857E+00  3.538212E+00 -8.085124E+00 -7.309519E+00 -6.585745E+00 -7.124039E+00
  2.71800000000E+00  0.00000000000E+00 -8.57000000000E-01     93.144 -1.753550E+00  1.760764E-01 -4.138546E-02 -1.483883E-03 -3.480055E+00  3.963761E-02 -3.674117E-01  1.365232E-01  8.118053E-01  3.978431E-01  1.366296E-01  5.640372E-01 -3.733136E+00  3.714962E-01 -3.742660E-01 -7.867878E-01 -4.748584E-01 -2.499025E-01 -2.284266E+00  2.852447E+00 -8.024127E+00 -7.248444E+00 -6.524886E+00 -7.057772E+00
  2.81300000000E+00  0.00000000000E+00 -8.87000000000E-01     91.372 -1.793264E+00  1.844893E-01 -2.307802E-01 -1.846153E-01 -3.870097E+00 -3.540935E-01 -7.560583E-01 -2.481209E-01  3.497818E-01  3.911421E-01  1.259225E-01  5.559615E-01 -3.779228E+00  2.149566E-01 -5.212697E-01 -9.041205E-01 -6.032329E-01 -2.634693E-01 -2.324371E+00  3.325164E+00 -8.044264E+00 -7.247273E+00 -6.544962E+00 -7.092741E+00
  2.81300000000E+00  0.00000000000E+00 -8.87000000000E-01     91.371 -1.746998E+00  1.844936E-01 -4.324279E-02 -1.718583E-03 -3.553623E+00  7.851761E-02 -3.271000E-01  1.778094E-01  8.366720E-01  4.097669E-01  1.445443E-01  5.745853E-01 -3.752661E+00  3.774579E-01 -3.590025E-01 -7.678396E-01 -4.550486E-01 -2.448497E-01 -2.265951E+00  2.774245E+00 -8.027421E+00 -7.230414E+00 -6.528183E+00 -7.071328E+00
  2.95700000000E+00  0.00000000000E+00 -9.32000000000E-01     89.053 -1.768584E+00  1.961120E-01 -2.420367E-01 -1.955723E-01 -4.004084E+00 -2.959421E-01 -6.969133E-01 -1.912530E-01  3.876625E-01  4.122016E-01  1.418158E-01  5.753380E-01 -3.804866E+00  2.191104E-01 -5.054544E-01 -8.779698E-01 -5.777615E-01 -2.513647E-01 -2.279674E+00  3.028017E+00 -8.041541E+00 -7.216331E+00 -6.542262E+00 -7.101767E+00
  2.95700000000E+00  0.00000000000E+00 -9.32000000000E-01     89.053 -1.735388E+00  1.961127E-01 -4.579888E-02 -2.114071E-03 -3.630004E+00  1.334132E-01 -2.713831E-01  2.329355E-01  8.765155E-01  4.220048E-01  1.516181E-01  5.851410E-01 -3.779379E+00  3.865389E-01 -3.379523E-01 -7.459272E-01 -4.299770E-01 -2.415632E-01 -2.240427E+00  2.627882E+00 -8.034926E+00 -7.209710E+00 -6.535689E+00 -7.092417E+00
  3.14700000000E+00  0.00000000000E+00 -9.92000000000E-01     86.535 -1.744790E+00  2.095596E-01 -2.545847E-01 -2.079339E-01 -4.115406E+00 -2.390979E-01 -6.400811E-01 -1.376653E-01  4.267525E-01  4.279690E-01  1.520764E-01  5.894295E-01 -3.834971E+00  2.230868E-01 -4.888445E-01 -8.570526E-01 -5.543410E-01 -2.452749E-01 -2.238384E+00  2.734887E+00 -8.046418E+00 -7.190149E+00 -6.547153E+00 -7.119413E+00
  3.14700000000E+00  0.00000000000E+00 -9.92000000000E-01     86.535 -1.718535E+00  2.095596E-01 -4.880976E-02 -2.665004E-03 -3.699794E+00  1.969473E-01 -2.077338E-01  2.943350E-01  9.260041E-01  4.330757E-01  1.571827E-01  5.945361E-01 -3.809405E+00  3.974382E-01 -3.141534E-01 -7.238952E-01 -4.030859E-01 -2.401689E-01 -2.208413E+00  2.426725E+00 -8.044015E+00 -7.187744E+00 -6.544783E+00 -7.116538E+00
  3.33800000000E+00  0.00000000000E+00 -1.05200000000E+00     84.579 -1.727513E+00  2.206434E-01 -2.639114E-01 -2.176519E-01 -4.191435E+00 -1.983615E-01 -5.996180E-01 -1.002949E-01  4.553085E-01  4.378545E-01  1.577553E-01  5.981218E-01 -3.859271E+00  2.257874E-01 -4.762166E-01 -8.432422E-01 -5.375810E-01 -2.428796E-01 -2.208795E+00  2.516008E+00 -8.052671E+00 -7.171952E+00 -6.553413E+00 -7.135172E+00
  3.33800000000E+00  0.00000000000E+00 -1.05200000000E+00     84.579 -1.703562E+00  2.206438E-01 -5.125020E-02 -3.188630E-03 -3.747818E+00  2.482779E-01 -1.566471E-01  3.429545E-01  9.675958E-01  4.405068E-01  1.604074E-01  6.007741E-01 -3.833367E+00  4.062438E-01 -2.953108E-01 -7.077513E-01 -3.824749E-01 -2.402277E-01 -2.181463E+00  2.251030E+00 -8.051475E+00 -7.170755E+00 -6.552247E+00 -7.135809E+00
  2.46000000000E+00  0.00000000000E+00 -5.45000000000E-01    101.966 -1.213823E+00  1.783228E-01  1.634837E+00  1.686739E+00 -1.978202E+00  1.864724E+00  1.531534E+00  1.980662E+00  2.736490E+00  7.381054E-01  4.757995E-01  9.039188E-01 -3.456096E+00  1.657243E+00  9.473586E-01  5.584707E-01  8.320484E-01  8.849416E-02 -1.244091E+00  5.373118E+00 -7.247003E+00 -6.465558E+00 -5.749721E+00 -6.296942E+00
  2.46000000000E+00  0.00000000000E+00 -5.45000000000E-01    101.965 -1.547603E+00  1.395605E-01 -3.124133E-02 -2.558129E-04 -2.899737E+00 -2.233582E-01 -6.543394E-01 -1.697436E-01  6.173499E-01  3.122655E-01  7.178029E-02  4.864457E-01 -3.645129E+00  3.753121E-01 -4.215982E-01 -8.940378E-01 -5.627463E-01 -3.009333E-01 -2.032332E+00  3.359115E+00 -7.895507E+00 -7.222943E+00 -6.396575E+00 -6.878768E+00
  2.50900000000E+00  0.00000000000E+00 -5.56000000000E-01    100.691 -1.503479E+00  1.743378E-01 -1.425815E-01 -9.157704E-02 -4.506122E+00 -8.388064E-01 -1.206791E+00 -7.268095E-01 -2.866249E-01  5.427723E-01  2.824178E-01  7.092688E-01 -3.703766E+00  2.579060E-01 -4.807848E-01 -7.097741E-01 -4.876228E-01 -1.035095E-01 -1.791063E+00  4.779792E+00 -7.636292E+00 -6.865116E+00 -6.137828E+00 -6.679991E+00
  2.50900000000E+00  0.00000000000E+00 -5.56000000000E-01    100.693 -1.637246E+00  1.443240E-01 -3.224455E-02 -4.477054E-04 -3.020216E+00 -1.762310E-01 -6.002833E-01 -1.135090E-01  6.579765E-01  3.279785E-01  8.442337E-02  5.008905E-01 -3.656789E+00  3.669256E-01 -4.213851E-01 -8.781750E-01 -5.538938E-01 -2.902410E-01 -2.157438E+00  3.211874E+00 -7.946694E+00 -7.259550E+00 -6.447614E+00 -6.936525E+00
  2.58700000000E+00  0.00000000000E+00 -5.74000000000E-01     98.797 -1.577677E+00  1.674801E-01 -1.874107E-01 -1.392988E-01 -4.497500E+00 -1.006127E+00 -1.373755E+00 -8.949482E-01 -4.495420E-01  5.193668E-01  2.625088E-01  6.871212E-01 -3.696366E+00  2.048803E-01 -5.409732E-01 -7.720156E-01 -5.516490E-01 -1.209878E-01 -1.915058E+00  5.071725E+00 -7.683088E+00 -6.930032E+00 -6.184487E+00 -6.716418E+00
  2.58700000000E+00  0.00000000000E+00 -5.74000000000E-01     98.800 -1.708084E+00  1.516970E-01 -3.525800E-02 -7.365165E-04 -3.235877E+00 -1.040760E-01 -5.187850E-01 -3.199163E-02  7.110742E-01  3.620113E-01  1.139400E-01  5.331091E-01 -3.671635E+00  3.616869E-01 -4.146563E-01 -8.408877E-01 -5.295592E-01 -2.636520E-01 -2.247805E+00  2.891878E+00 -7.977952E+00 -7.268945E+00 -6.478783E+00 -6.979277E+00
  2.68500000000E+00  0.00000000000E+00 -5.95000000000E-01     96.617 -1.566179E+00  1.644138E-01 -1.780285E-01 -1.330002E-01 -4.651939E+00 -1.141968E+00 -1.501001E+00 -1.031579E+00 -6.126653E-01  5.477644E-01  2.925292E-01  7.161170E-01 -3.679895E+00  1.973318E-01 -5.495263E-01 -7.452683E-01 -5.435738E-01 -8.985520E-02 -1.881859E+00  5.335152E+00 -7.630035E+00 -6.885271E+00 -6.131548E+00 -6.657036E+00
  2.68500000000E+00  0.00000000000E+00 -5.95000000000E-01     96.659 -1.739305E+00  1.605030E-01 -3.724927E-02 -9.232554E-04 -3.401644E+00 -5.667498E-02 -4.648732E-01  3.043768E-02  7.333600E-01  3.878675E-01  1.347581E-01  5.570172E-01 -3.691646E+00  3.611892E-01 -4.026442E-01 -8.093979E-01 -5.050224E-01 -2.461846E-01 -2.275827E+00  2.903392E+00 -7.989847E+00 -7.255836E+00 -6.490654E+00 -7.003082E+00