Title="TOUGHREACT V4.13omp : Mineral Reactive Surface Area (m^2/kg H2O)"
Variables= "X(m)"   "Y(m)"   "Z(m)"    "SatLiq" "A_fracmtx"  "A_Factor"   "microcline-b"     "albite-low"      "anorthite"   "smect-ca-cal"   "smect-na-cal"   "smect-mg-cal"         "illite"      "tridymite"     "cristoba-a"         "quartz"    "hydglassfe3"   "stell/10-r02"    "heul/10-r02"    "mord/10-r02"    "clpt/10-r02"    "sio2(amor.)"       "fluorite"      "sepiolite"          "nano3"           "kno3"         "halite"        "sylvite"
Zone T= "3.15569000E+07 sec" I=    4490 J=       1 K=       1 F=Point
  1.99900000000E+00  0.00000000000E+00 -1.53400000000E+00 1.90722E-02 2.00261E-03 1.27802E-04  2.3966E+00  1.8134E+00  6.4216E-02  6.0000E-01  6.0000E-01  6.0000E-01  1.8786E-01  1.5144E-01  2.4107E+00  1.9423E-01  2.7622E-13  3.2669E+00  2.7129E-04  2.6846E-04  2.7099E-04  2.6701E-02  3.0248E-04  2.7327E-04  2.5511E-04  2.5511E-04  2.6993E-04  2.6429E-04
  1.99900000000E+00  0.00000000000E+00 -1.53400000000E+00 9.73798E-01 1.00000E+00 8.03832E-03  5.2692E+02  3.9900E+02  1.4124E+01  2.6429E+01  2.6429E+01  2.6429E+01  8.2753E+00  3.3310E+01  5.3004E+02  4.2682E+01  1.4355E-11  1.4203E-02  1.4270E-02  1.4204E-02  1.4263E-02  1.4445E+00  1.4997E-02  1.4616E-02  1.3993E-02  1.3993E-02  1.4366E-02  1.4224E-02
  2.03900000000E+00  0.00000000000E+00 -1.56500000000E+00 2.00022E-02 2.15803E-03 1.31222E-04  2.4608E+00  1.8620E+00  6.5934E-02  6.1606E-01  6.1606E-01  6.1606E-01  1.9289E-01  1.5550E-01  2.4752E+00  1.9943E-01  2.8361E-13  3.3543E+00  2.7855E-04  2.7564E-04  2.7824E-04  2.7415E-02  3.1058E-04  2.8059E-04  2.6194E-04  2.6194E-04  2.7716E-04  2.7136E-04
  2.03900000000E+00  0.00000000000E+00 -1.56500000000E+00 9.74795E-01 1.00000E+00 8.03250E-03  5.2654E+02  3.9803E+02  1.4114E+01  2.6409E+01  2.6409E+01  2.6409E+01  8.2684E+00  3.3285E+01  5.2965E+02  4.2651E+01  1.4344E-11  1.4193E-02  1.4260E-02  1.4194E-02  1.4253E-02  1.4434E+00  1.4986E-02  1.4606E-02  1.3983E-02  1.3983E-02  1.4355E-02  1.4213E-02
  2.10200000000E+00  0.00000000000E+00 -1.61300000000E+00 2.13835E-02 2.39653E-03 1.36157E-04  2.5533E+00  1.9320E+00  6.8414E-02  6.3923E-01  6.3923E-01  6.3923E-01  2.0015E-01  1.6134E-01  2.5683E+00  2.0693E-01  2.9428E-13  3.4805E+00  2.8903E-04  2.8601E-04  2.8871E-04  2.8446E-02  3.2226E-04  2.9114E-04  2.7179E-04  2.7179E-04  2.8758E-04  2.8156E-04
  2.10200000000E+00  0.00000000000E+00 -1.61300000000E+00 9.75486E-01 1.00000E+00 8.02341E-03  5.2594E+02  3.9758E+02  1.4098E+01  2.6378E+01  2.6378E+01  2.6378E+01  8.2584E+00  3.3248E+01  5.2905E+02  4.2603E+01  1.4328E-11  1.4177E-02  1.4243E-02  1.4178E-02  1.4236E-02  1.4418E+00  1.4969E-02  1.4589E-02  1.3967E-02  1.3967E-02  1.4339E-02  1.4197E-02
  2.18200000000E+00  0.00000000000E+00 -1.67400000000E+00 2.30226E-02 2.69112E-03 1.41815E-04  2.6594E+00  2.0123E+00  7.1257E-02  6.6579E-01  6.6579E-01  6.6579E-01  2.0846E-01  1.6805E-01  2.6750E+00  2.1553E-01  3.0651E-13  3.6251E+00  3.0104E-04  2.9789E-04  3.0070E-04  2.9628E-02  3.3565E-04  3.0324E-04  2.8308E-04  2.8308E-04  2.9953E-04  2.9326E-04
  2.18200000000E+00  0.00000000000E+00 -1.67400000000E+00 9.75869E-01 1.00000E+00 8.01249E-03  5.2523E+02  3.9704E+02  1.4079E+01  2.6341E+01  2.6341E+01  2.6341E+01  8.2463E+00  3.3203E+01  5.2833E+02  4.2545E+01  1.4309E-11  1.4158E-02  1.4224E-02  1.4158E-02  1.4217E-02  1.4398E+00  1.4948E-02  1.4570E-02  1.3948E-02  1.3948E-02  1.4319E-02  1.4178E-02
  2.26100000000E+00  0.00000000000E+00 -1.73500000000E+00 2.46008E-02 2.98626E-03 1.47082E-04  2.7582E+00  2.0870E+00  7.3904E-02  6.9052E-01  6.9052E-01  6.9052E-01  2.1620E-01  1.7429E-01  2.7744E+00  2.2353E-01  3.1789E-13  3.7597E+00  3.1222E-04  3.0896E-04  3.1187E-04  3.0729E-02  3.4812E-04  3.1450E-04  2.9360E-04  2.9360E-04  3.1065E-04  3.0415E-04
  2.26100000000E+00  0.00000000000E+00 -1.73500000000E+00 9.76131E-01 1.00000E+00 8.00212E-03  5.2455E+02  3.9653E+02  1.4061E+01  2.6306E+01  2.6306E+01  2.6306E+01  8.2348E+00  3.3160E+01  5.2765E+02  4.2490E+01  1.4290E-11  1.4140E-02  1.4206E-02  1.4140E-02  1.4199E-02  1.4380E+00  1.4929E-02  1.4551E-02  1.3930E-02  1.3930E-02  1.4301E-02  1.4160E-02
  2.34000000000E+00  0.00000000000E+00 -1.79600000000E+00 2.61450E-02 3.28571E-03 1.52085E-04  2.8520E+00  2.1580E+00  7.6417E-02  7.1401E-01  7.1401E-01  7.1401E-01  2.2356E-01  1.8022E-01  2.8688E+00  2.3114E-01  3.2871E-13  3.8876E+00  3.2284E-04  3.1947E-04  3.2248E-04  3.1774E-02  3.5996E-04  3.2520E-04  3.0358E-04  3.0358E-04  3.2122E-04  3.1450E-04
  2.34000000000E+00  0.00000000000E+00 -1.79600000000E+00 9.76309E-01 1.00000E+00 7.99231E-03  5.2391E+02  3.9605E+02  1.4044E+01  2.6273E+01  2.6273E+01  2.6273E+01  8.2238E+00  3.3119E+01  5.2700E+02  4.2438E+01  1.4273E-11  1.4122E-02  1.4188E-02  1.4123E-02  1.4181E-02  1.4362E+00  1.4911E-02  1.4533E-02  1.3913E-02  1.3913E-02  1.4283E-02  1.4142E-02
  2.45900000000E+00  0.00000000000E+00 -1.88700000000E+00 2.84099E-02 3.74336E-03 1.59181E-04  2.9851E+00  2.2587E+00  7.9983E-02  7.4732E-01  7.4732E-01  7.4732E-01  2.3399E-01  1.8863E-01  3.0026E+00  2.4192E-01  3.4404E-13  4.0690E+00  3.3790E-04  3.3437E-04  3.3753E-04  3.3256E-02  3.7675E-04  3.4037E-04  3.1775E-04  3.1775E-04  3.3621E-04  3.2917E-04
  2.45900000000E+00  0.00000000000E+00 -1.88700000000E+00 9.76460E-01 1.00000E+00 7.97863E-03  5.2301E+02  3.9604E+02  1.4020E+01  2.6226E+01  2.6226E+01  2.6226E+01  8.2085E+00  3.3062E+01  5.2610E+02  4.2365E+01  1.4248E-11  1.4098E-02  1.4164E-02  1.4098E-02  1.4157E-02  1.4337E+00  1.4885E-02  1.4508E-02  1.3889E-02  1.3889E-02  1.4259E-02  1.4118E-02
  2.61800000000E+00  0.00000000000E+00 -2.00900000000E+00 3.13018E-02 4.35851E-03 1.67869E-04  3.1480E+00  2.3820E+00  8.4348E-02  7.8811E-01  7.8811E-01  7.8811E-01  2.4676E-01  1.9892E-01  3.1665E+00  2.5513E-01  3.6282E-13  4.2911E+00  3.5634E-04  3.5262E-04  3.5595E-04  3.5071E-02  3.9731E-04  3.5895E-04  3.3509E-04  3.3509E-04  3.5456E-04  3.4714E-04
  2.61800000000E+00  0.00000000000E+00 -2.00900000000E+00 9.76499E-01 1.00000E+00 7.96217E-03  5.2193E+02  3.9523E+02  1.3991E+01  2.6170E+01  2.6170E+01  2.6170E+01  8.1901E+00  3.2994E+01  5.2501E+02  4.2278E+01  1.4219E-11  1.4069E-02  1.4135E-02  1.4069E-02  1.4128E-02  1.4308E+00  1.4855E-02  1.4478E-02  1.3860E-02  1.3860E-02  1.4229E-02  1.4089E-02
  2.77700000000E+00  0.00000000000E+00 -2.13100000000E+00 3.40531E-02 4.97463E-03 1.75794E-04  3.2966E+00  2.4944E+00  8.8330E-02  8.2532E-01  8.2532E-01  8.2532E-01  2.5841E-01  2.0831E-01  3.3160E+00  2.6717E-01  3.7995E-13  4.4937E+00  3.7317E-04  3.6927E-04  3.7275E-04  3.6727E-02  4.1607E-04  3.7589E-04  3.5091E-04  3.5091E-04  3.7130E-04  3.6353E-04
  2.77700000000E+00  0.00000000000E+00 -2.13100000000E+00 9.76407E-01 1.00000E+00 7.94754E-03  5.2097E+02  3.9450E+02  1.3965E+01  2.6120E+01  2.6120E+01  2.6120E+01  8.1737E+00  3.2933E+01  5.2405E+02  4.2200E+01  1.4193E-11  1.4043E-02  1.4109E-02  1.4043E-02  1.4102E-02  1.4281E+00  1.4827E-02  1.4451E-02  1.3835E-02  1.3835E-02  1.4203E-02  1.4063E-02
  2.97500000000E+00  0.00000000000E+00 -2.28300000000E+00 3.71329E-02 5.69868E-03 1.84303E-04  3.4562E+00  2.6152E+00  9.2606E-02  8.6526E-01  8.6526E-01  8.6526E-01  2.7092E-01  2.1840E-01  3.4765E+00  2.8010E-01  3.9834E-13  4.7112E+00  3.9123E-04  3.8714E-04  3.9080E-04  3.8505E-02  4.3621E-04  3.9409E-04  3.6790E-04  3.6790E-04  3.8927E-04  3.8112E-04
  2.97500000000E+00  0.00000000000E+00 -2.28300000000E+00 9.76163E-01 1.00000E+00 7.93141E-03  5.1992E+02  3.9371E+02  1.3937E+01  2.6065E+01  2.6065E+01  2.6065E+01  8.1557E+00  3.2867E+01  5.2299E+02  4.2115E+01  1.4164E-11  1.4015E-02  1.4080E-02  1.4015E-02  1.4073E-02  1.4252E+00  1.4797E-02  1.4422E-02  1.3807E-02  1.3807E-02  1.4174E-02  1.4034E-02
  3.21300000000E+00  0.00000000000E+00 -2.46500000000E+00 4.02295E-02 6.46201E-03 1.92494E-04  3.6098E+00  2.7314E+00  9.6722E-02  9.0372E-01  9.0372E-01  9.0372E-01  2.8296E-01  2.2810E-01  3.6310E+00  2.9255E-01  4.1604E-13  4.9205E+00  4.0862E-04  4.0435E-04  4.0817E-04  4.0216E-02  4.5560E-04  4.1160E-04  3.8425E-04  3.8425E-04  4.0657E-04  3.9806E-04
  3.21300000000E+00  0.00000000000E+00 -2.46500000000E+00 9.75749E-01 1.00000E+00 7.91464E-03  5.1882E+02  3.9288E+02  1.3907E+01  2.6008E+01  2.6008E+01  2.6008E+01  8.1371E+00  3.2797E+01  5.2188E+02  4.2026E+01  1.4134E-11  1.3985E-02  1.4050E-02  1.3985E-02  1.4043E-02  1.4222E+00  1.4766E-02  1.4392E-02  1.3778E-02  1.3778E-02  1.4144E-02  1.4005E-02
  3.76800000000E+00  0.00000000000E+00 -2.89200000000E+00 4.62282E-02 8.03708E-03 2.07540E-04  3.8919E+00  2.9449E+00  1.0428E-01  9.7436E-01  9.7436E-01  9.7436E-01  3.0508E-01  2.4593E-01  3.9148E+00  3.1542E-01  4.4856E-13  5.3051E+00  4.4055E-04  4.3595E-04  4.4007E-04  4.3360E-02  4.9121E-04  4.4377E-04  4.1428E-04  4.1428E-04  4.3835E-04  4.2918E-04
  3.76800000000E+00  0.00000000000E+00 -2.89200000000E+00 9.74609E-01 1.00000E+00 7.88410E-03  5.1682E+02  3.9137E+02  1.3854E+01  2.5903E+01  2.5903E+01  2.5903E+01  8.1034E+00  3.2671E+01  5.1987E+02  4.1863E+01  1.4079E-11  1.3931E-02  1.3996E-02  1.3931E-02  1.3989E-02  1.4167E+00  1.4709E-02  1.4336E-02  1.3725E-02  1.3725E-02  1.4090E-02  1.3951E-02
  4.16500000000E+00  0.00000000000E+00 -3.19600000000E+00 4.94135E-02 8.92303E-03 2.15108E-04  4.0338E+00  3.0523E+00  1.0808E-01  1.0099E+00  1.0099E+00  1.0099E+00  3.1620E-01  2.5490E-01  4.0576E+00  3.2692E-01  4.6492E-13  5.4986E+00  4.5662E-04  4.5185E-04  4.5612E-04  4.4941E-02  5.0912E-04  4.5996E-04  4.2939E-04  4.2939E-04  4.5433E-04  4.4483E-04
  4.16500000000E+00  0.00000000000E+00 -3.19600000000E+00 9.73564E-01 1.00000E+00 7.86743E-03  5.1573E+02  3.9054E+02  1.3824E+01  2.5847E+01  2.5847E+01  2.5847E+01  8.0852E+00  3.2601E+01  5.1877E+02  4.1775E+01  1.4050E-11  1.3902E-02  1.3967E-02  1.3902E-02  1.3960E-02  1.4137E+00  1.4678E-02  1.4306E-02  1.3696E-02  1.3696E-02  1.4060E-02  1.3921E-02
  4.64100000000E+00  0.00000000000E+00 -3.56100000000E+00 5.21000E-02 9.69605E-03 2.21244E-04  4.1489E+00  3.1394E+00  1.1117E-01  1.0387E+00  1.0387E+00  1.0387E+00  3.2522E-01  2.6217E-01  4.1733E+00  3.3624E-01  4.7818E-13  5.6554E+00  4.6964E-04  4.6474E-04  4.6913E-04  4.6223E-02  5.2364E-04  4.7308E-04  4.4164E-04  4.4164E-04  4.6729E-04  4.5752E-04
  4.64100000000E+00  0.00000000000E+00 -3.56100000000E+00 9.71807E-01 1.00000E+00 7.85163E-03  5.1469E+02  3.8976E+02  1.3797E+01  2.5794E+01  2.5794E+01  2.5794E+01  8.0682E+00  3.2536E+01  5.1773E+02  4.1691E+01  1.4021E-11  1.3874E-02  1.3938E-02  1.3874E-02  1.3932E-02  1.4109E+00  1.4648E-02  1.4277E-02  1.3668E-02  1.3668E-02  1.4032E-02  1.3893E-02
  2.28400000000E+00  0.00000000000E+00 -1.06500000000E+00 0.00000E+00 0.00000E+00 0.00000E+00  3.9514E-05  3.9786E-05  4.0412E-14  1.2115E-04  1.2115E-04  1.2115E-04  4.0614E-05  3.8175E-14  3.8507E-14  3.9911E-14  3.8622E-14  3.7534E-05  3.7933E-05  3.7536E-05  3.7891E-05  3.7334E-03  4.2294E-05  3.8210E-05  3.5670E-05  3.5670E-05  3.7743E-05  3.6953E-05
  2.28400000000E+00  0.00000000000E+00 -1.06500000000E+00 8.72171E-01 1.00000E+00 8.09740E-03  5.3079E+02  4.0126E+02  1.4228E+01  2.6616E+01  2.6616E+01  2.6616E+01  8.3334E+00  3.3554E+01  5.3393E+02  4.2996E+01  1.4460E-11  1.4308E-02  1.4375E-02  1.4308E-02  1.4368E-02  1.4551E+00  1.5107E-02  4.1798E-03  1.4096E-02  1.4096E-02  1.4471E-02  1.4328E-02
  2.32900000000E+00  0.00000000000E+00 -1.08600000000E+00 0.00000E+00 0.00000E+00 0.00000E+00  6.5124E-01  4.9276E-01  1.7450E-02  1.6304E-01  1.6304E-01  1.6304E-01  5.1049E-02  4.1152E-02  6.5507E-01  5.2779E-02  7.5058E-14  8.8773E-01  7.3718E-05  7.2948E-05  7.3637E-05  7.2554E-03  8.2195E-05  7.4257E-05  6.9322E-05  6.9322E-05  7.3349E-05  7.1815E-05
  2.32900000000E+00  0.00000000000E+00 -1.08600000000E+00 9.39104E-01 1.00000E+00 8.08809E-03  5.3018E+02  4.0079E+02  1.4211E+01  2.6591E+01  2.6591E+01  2.6591E+01  8.3275E+00  3.3516E+01  5.3332E+02  4.2947E+01  1.4444E-11  1.4291E-02  1.4358E-02  1.4292E-02  1.4351E-02  1.4534E+00  1.5089E-02  6.1375E-03  1.4080E-02  1.4080E-02  1.4454E-02  1.4312E-02
  2.40200000000E+00  0.00000000000E+00 -1.12000000000E+00 1.14103E-02 8.93943E-04 9.57892E-05  1.7963E+00  1.3592E+00  4.8131E-02  4.4971E-01  4.4971E-01  4.4971E-01  1.4081E-01  1.1351E-01  1.8069E+00  1.4558E-01  2.0703E-13  2.4486E+00  2.0334E-04  2.0121E-04  2.0311E-04  2.0012E-02  2.2672E-04  2.0482E-04  1.9121E-04  1.9121E-04  2.0232E-04  1.9808E-04
  2.40200000000E+00  0.00000000000E+00 -1.12000000000E+00 9.68344E-01 1.00000E+00 8.07475E-03  5.2930E+02  4.0012E+02  1.4188E+01  2.6550E+01  2.6550E+01  2.6550E+01  8.3153E+00  3.3461E+01  5.3244E+02  4.2876E+01  1.4420E-11  1.4268E-02  1.4335E-02  1.4268E-02  1.4328E-02  1.4510E+00  1.5065E-02  1.4683E-02  1.4056E-02  1.4056E-02  1.4431E-02  1.4288E-02
  2.49200000000E+00  0.00000000000E+00 -1.16200000000E+00 1.83329E-02 1.88211E-03 1.25301E-04  2.3497E+00  1.7779E+00  6.2959E-02  5.8826E-01  5.8826E-01  5.8826E-01  1.8419E-01  1.4848E-01  2.3635E+00  1.9043E-01  2.7082E-13  3.2030E+00  2.6598E-04  2.6320E-04  2.6569E-04  2.6178E-02  2.9656E-04  2.6793E-04  2.5012E-04  2.5012E-04  2.6465E-04  2.5911E-04
  2.49200000000E+00  0.00000000000E+00 -1.16200000000E+00 9.74664E-01 1.00000E+00 8.06047E-03  5.2837E+02  3.9941E+02  1.4163E+01  2.6504E+01  2.6504E+01  2.6504E+01  8.3000E+00  3.3401E+01  5.3150E+02  4.2800E+01  1.4394E-11  1.4243E-02  1.4309E-02  1.4243E-02  1.4302E-02  1.4484E+00  1.5038E-02  1.4657E-02  1.4032E-02  1.4032E-02  1.4405E-02  1.4263E-02
  2.58300000000E+00  0.00000000000E+00 -1.20400000000E+00 2.15444E-02 2.42489E-03 1.37156E-04  2.5720E+00  1.9462E+00  6.8916E-02  6.4392E-01  6.4392E-01  6.4392E-01  2.0161E-01  1.6253E-01  2.5872E+00  2.0845E-01  2.9644E-13  3.5060E+00  2.9115E-04  2.8811E-04  2.9083E-04  2.8655E-02  3.2462E-04  2.9327E-04  2.7378E-04  2.7378E-04  2.8969E-04  2.8363E-04
  2.58300000000E+00  0.00000000000E+00 -1.20400000000E+00 9.75942E-01 1.00000E+00 8.04784E-03  5.2754E+02  3.9879E+02  1.4141E+01  2.6461E+01  2.6461E+01  2.6461E+01  8.2860E+00  3.3349E+01  5.3066E+02  4.2733E+01  1.4372E-11  1.4220E-02  1.4287E-02  1.4221E-02  1.4280E-02  1.4462E+00  1.5014E-02  1.4634E-02  1.4010E-02  1.4010E-02  1.4383E-02  1.4240E-02
  2.67400000000E+00  0.00000000000E+00 -1.24700000000E+00 2.41704E-02 2.90468E-03 1.46239E-04  2.7424E+00  2.0750E+00  7.3480E-02  6.8656E-01  6.8656E-01  6.8656E-01  2.1497E-01  1.7329E-01  2.7585E+00  2.2225E-01  3.1607E-13  3.7382E+00  3.1043E-04  3.0719E-04  3.1009E-04  3.0552E-02  3.4612E-04  3.1270E-04  2.9191E-04  2.9191E-04  3.0887E-04  3.0241E-04
  2.67400000000E+00  0.00000000000E+00 -1.24700000000E+00 9.76545E-01 1.00000E+00 8.03659E-03  5.2680E+02  3.9823E+02  1.4121E+01  2.6423E+01  2.6423E+01  2.6423E+01  8.2735E+00  3.3302E+01  5.2992E+02  4.2673E+01  1.4352E-11  1.4200E-02  1.4267E-02  1.4201E-02  1.4260E-02  1.4441E+00  1.4993E-02  1.4613E-02  1.3990E-02  1.3990E-02  1.4362E-02  1.4221E-02
  2.81000000000E+00  0.00000000000E+00 -1.31000000000E+00 2.74611E-02 3.54901E-03 1.56978E-04  2.9437E+00  2.2274E+00  7.8876E-02  7.3698E-01  7.3698E-01  7.3698E-01  2.3075E-01  1.8602E-01  2.9611E+00  2.3857E-01  3.3928E-13  4.0127E+00  3.3322E-04  3.2974E-04  3.3286E-04  3.2796E-02  3.7154E-04  3.3566E-04  3.1335E-04  3.1335E-04  3.3155E-04  3.2462E-04
  2.81000000000E+00  0.00000000000E+00 -1.31000000000E+00 9.77060E-01 1.00000E+00 8.02185E-03  5.2584E+02  3.9750E+02  1.4095E+01  2.6373E+01  2.6373E+01  2.6373E+01  8.2571E+00  3.3241E+01  5.2895E+02  4.2595E+01  1.4325E-11  1.4174E-02  1.4241E-02  1.4175E-02  1.4234E-02  1.4415E+00  1.4966E-02  1.4587E-02  1.3964E-02  1.3964E-02  1.4336E-02  1.4194E-02
  2.99100000000E+00  0.00000000000E+00 -1.39500000000E+00 3.13138E-02 4.36112E-03 1.68818E-04  3.1658E+00  2.3954E+00  8.4825E-02  7.9256E-01  7.9256E-01  7.9256E-01  2.4816E-01  2.0005E-01  3.1844E+00  2.5657E-01  3.6487E-13  4.3154E+00  3.5836E-04  3.5461E-04  3.5796E-04  3.5270E-02  3.9956E-04  3.6097E-04  3.3698E-04  3.3698E-04  3.5656E-04  3.4910E-04
  2.99100000000E+00  0.00000000000E+00 -1.39500000000E+00 9.77425E-01 1.00000E+00 8.00539E-03  5.2476E+02  3.9737E+02  1.4067E+01  2.6318E+01  2.6318E+01  2.6318E+01  8.2386E+00  3.3173E+01  5.2786E+02  4.2507E+01  1.4296E-11  1.4145E-02  1.4211E-02  1.4146E-02  1.4205E-02  1.4385E+00  1.4935E-02  1.4557E-02  1.3936E-02  1.3936E-02  1.4307E-02  1.4165E-02
  3.17200000000E+00  0.00000000000E+00 -1.47900000000E+00 3.48533E-02 5.15931E-03 1.79127E-04  3.3591E+00  2.5417E+00  9.0005E-02  8.4096E-01  8.4096E-01  8.4096E-01  2.6331E-01  2.1226E-01  3.3788E+00  2.7223E-01  3.8715E-13  4.5789E+00  3.8024E-04  3.7627E-04  3.7982E-04  3.7423E-02  4.2396E-04  3.8302E-04  3.5756E-04  3.5756E-04  3.7834E-04  3.7042E-04
  3.17200000000E+00  0.00000000000E+00 -1.47900000000E+00 9.77597E-01 1.00000E+00 7.99174E-03  5.2387E+02  3.9669E+02  1.4043E+01  2.6271E+01  2.6271E+01  2.6271E+01  8.2234E+00  3.3117E+01  5.2696E+02  4.2435E+01  1.4272E-11  1.4121E-02  1.4187E-02  1.4122E-02  1.4180E-02  1.4361E+00  1.4910E-02  1.4532E-02  1.3912E-02  1.3912E-02  1.4282E-02  1.4141E-02
  2.40300000000E+00  0.00000000000E+00 -7.58000000000E-01 0.00000E+00 0.00000E+00 0.00000E+00  3.7813E-06  3.8073E-06  3.8671E-15  1.1593E-05  1.1593E-05  1.1593E-05  3.8865E-06  3.6531E-15  3.6849E-15  3.8192E-15  3.6959E-15  3.5918E-06  3.6299E-06  3.5920E-06  3.6259E-06  3.5726E-04  4.0473E-06  3.6564E-06  3.4134E-06  3.4134E-06  3.6117E-06  3.5362E-06
  2.40300000000E+00  0.00000000000E+00 -7.58000000000E-01 8.61299E-01 1.00000E+00 8.11426E-03  5.3189E+02  4.0209E+02  1.4257E+01  2.6672E+01  2.6672E+01  2.6672E+01  8.3525E+00  3.3624E+01  5.3504E+02  4.3085E+01  1.4490E-11  1.4338E-02  1.4405E-02  1.4338E-02  1.4398E-02  1.4581E+00  1.5138E-02  4.6368E-03  1.4125E-02  1.4125E-02  1.4501E-02  1.4358E-02
  2.45100000000E+00  0.00000000000E+00 -7.73000000000E-01 0.00000E+00 0.00000E+00 0.00000E+00  5.7902E-01  4.3812E-01  1.5514E-02  1.4496E-01  1.4496E-01  1.4496E-01  4.5387E-02  3.6588E-02  5.8242E-01  4.6926E-02  6.6734E-14  7.8927E-01  6.5543E-05  6.4858E-05  6.5471E-05  6.4508E-03  7.3079E-05  6.6022E-05  6.1634E-05  6.1634E-05  6.5215E-05  6.3850E-05
  2.45100000000E+00  0.00000000000E+00 -7.73000000000E-01 9.33348E-01 1.00000E+00 8.10584E-03  5.3134E+02  4.0166E+02  1.4243E+01  2.6652E+01  2.6652E+01  2.6652E+01  8.3486E+00  3.3589E+01  5.3449E+02  4.3041E+01  1.4475E-11  1.4323E-02  1.4390E-02  1.4323E-02  1.4383E-02  1.4566E+00  1.5123E-02  4.0790E-03  1.4111E-02  1.4111E-02  1.4486E-02  1.4343E-02
  2.52700000000E+00  0.00000000000E+00 -7.97000000000E-01 0.00000E+00 0.00000E+00 0.00000E+00  9.0225E-01  6.8270E-01  2.4175E-02  2.2588E-01  2.2588E-01  2.2588E-01  7.0725E-02  5.7014E-02  9.0755E-01  7.3122E-02  1.0399E-13  1.2299E+00  1.0213E-04  1.0107E-04  1.0202E-04  1.0052E-02  1.1388E-04  1.0288E-04  9.6041E-05  9.6041E-05  1.0162E-04  9.9494E-05
  2.52700000000E+00  0.00000000000E+00 -7.97000000000E-01 9.63303E-01 1.00000E+00 8.09356E-03  5.3053E+02  4.0105E+02  1.4221E+01  2.6615E+01  2.6615E+01  2.6615E+01  8.3372E+00  3.3538E+01  5.3368E+02  4.2976E+01  1.4453E-11  1.4301E-02  1.4368E-02  1.4302E-02  1.4361E-02  1.4544E+00  1.5100E-02  1.4873E-02  1.4089E-02  1.4089E-02  1.4464E-02  1.4321E-02
  2.62300000000E+00  0.00000000000E+00 -8.27000000000E-01 1.39567E-02 1.22655E-03 1.07521E-04  2.0163E+00  1.5257E+00  5.4026E-02  5.0479E-01  5.0479E-01  5.0479E-01  1.5805E-01  1.2741E-01  2.0282E+00  1.6341E-01  2.3239E-13  2.7485E+00  2.2824E-04  2.2586E-04  2.2799E-04  2.2464E-02  2.5448E-04  2.2991E-04  2.1463E-04  2.1463E-04  2.2710E-04  2.2235E-04
  2.62300000000E+00  0.00000000000E+00 -8.27000000000E-01 9.73395E-01 1.00000E+00 8.08013E-03  5.2965E+02  4.0038E+02  1.4198E+01  2.6571E+01  2.6571E+01  2.6571E+01  8.3227E+00  3.3483E+01  5.3279E+02  4.2904E+01  1.4429E-11  1.4277E-02  1.4344E-02  1.4278E-02  1.4337E-02  1.4520E+00  1.5075E-02  1.4693E-02  1.4066E-02  1.4066E-02  1.4440E-02  1.4298E-02
  2.71800000000E+00  0.00000000000E+00 -8.57000000000E-01 2.02360E-02 2.19776E-03 1.32691E-04  2.4883E+00  1.8828E+00  6.6673E-02  6.2296E-01  6.2296E-01  6.2296E-01  1.9505E-01  1.5724E-01  2.5029E+00  2.0166E-01  2.8679E-13  3.3919E+00  2.8167E-04  2.7873E-04  2.8136E-04  2.7722E-02  3.1406E-04  2.8373E-04  2.6487E-04  2.6487E-04  2.8026E-04  2.7440E-04
  2.71800000000E+00  0.00000000000E+00 -8.57000000000E-01 9.75621E-01 1.00000E+00 8.06875E-03  5.2891E+02  3.9982E+02  1.4178E+01  2.6532E+01  2.6532E+01  2.6532E+01  8.3099E+00  3.3436E+01  5.3204E+02  4.2844E+01  1.4409E-11  1.4257E-02  1.4324E-02  1.4258E-02  1.4317E-02  1.4499E+00  1.5053E-02  1.4672E-02  1.4046E-02  1.4046E-02  1.4420E-02  1.4277E-02
  2.81300000000E+00  0.00000000000E+00 -8.87000000000E-01 2.34965E-02 2.77856E-03 1.44295E-04  2.7059E+00  2.0475E+00  7.2503E-02  6.7743E-01  6.7743E-01  6.7743E-01  2.1211E-01  1.7099E-01  2.7218E+00  2.1930E-01  3.1187E-13  3.6885E+00  3.0630E-04  3.0310E-04  3.0596E-04  3.0146E-02  3.4152E-04  3.0854E-04  2.8803E-04  2.8803E-04  3.0477E-04  2.9839E-04
  2.81300000000E+00  0.00000000000E+00 -8.87000000000E-01 9.76534E-01 1.00000E+00 8.05855E-03  5.2824E+02  3.9932E+02  1.4160E+01  2.6498E+01  2.6498E+01  2.6498E+01  8.2984E+00  3.3393E+01  5.3137E+02  4.2790E+01  1.4391E-11  1.4239E-02  1.4306E-02  1.4240E-02  1.4299E-02  1.4481E+00  1.5034E-02  1.4653E-02  1.4028E-02  1.4028E-02  1.4402E-02  1.4259E-02
  2.95700000000E+00  0.00000000000E+00 -9.32000000000E-01 2.72797E-02 3.51228E-03 1.56847E-04  2.9413E+00  2.2255E+00  7.8810E-02  7.3636E-01  7.3636E-01  7.3636E-01  2.3056E-01  1.8586E-01  2.9586E+00  2.3837E-01  3.3900E-13  4.0094E+00  3.3294E-04  3.2947E-04  3.3258E-04  3.2769E-02  3.7123E-04  3.3538E-04  3.1309E-04  3.1309E-04  3.3128E-04  3.2435E-04
  2.95700000000E+00  0.00000000000E+00 -9.32000000000E-01 9.77282E-01 1.00000E+00 8.04543E-03  5.2738E+02  3.9867E+02  1.4137E+01  2.6454E+01  2.6454E+01  2.6454E+01  8.2837E+00  3.3339E+01  5.3050E+02  4.2720E+01  1.4368E-11  1.4216E-02  1.4283E-02  1.4216E-02  1.4276E-02  1.4457E+00  1.5010E-02  1.4629E-02  1.4005E-02  1.4005E-02  1.4378E-02  1.4236E-02
  3.14700000000E+00  0.00000000000E+00 -9.92000000000E-01 3.14730E-02 4.39597E-03 1.69858E-04  3.1853E+00  2.4102E+00  8.5348E-02  7.9745E-01  7.9745E-01  7.9745E-01  2.4968E-01  2.0128E-01  3.2040E+00  2.5815E-01  3.6712E-13  4.3420E+00  3.6056E-04  3.5680E-04  3.6017E-04  3.5487E-02  4.0202E-04  3.6320E-04  3.3906E-04  3.3906E-04  3.5876E-04  3.5125E-04
  3.14700000000E+00  0.00000000000E+00 -9.92000000000E-01 9.77839E-01 1.00000E+00 8.03147E-03  5.2647E+02  3.9798E+02  1.4112E+01  2.6407E+01  2.6407E+01  2.6407E+01  8.2681E+00  3.3281E+01  5.2958E+02  4.2646E+01  1.4343E-11  1.4191E-02  1.4258E-02  1.4192E-02  1.4251E-02  1.4432E+00  1.4984E-02  1.4604E-02  1.3981E-02  1.3981E-02  1.4353E-02  1.4211E-02
  3.33800000000E+00  0.00000000000E+00 -1.05200000000E+00 3.51940E-02 5.23868E-03 1.80778E-04  3.3901E+00  2.5651E+00  9.0834E-02  8.4871E-01  8.4871E-01  8.4871E-01  2.6574E-01  2.1422E-01  3.4100E+00  2.7474E-01  3.9072E-13  4.6211E+00  3.8374E-04  3.7974E-04  3.8332E-04  3.7768E-02  4.2787E-04  3.8655E-04  3.6086E-04  3.6086E-04  3.8182E-04  3.7383E-04
  3.33800000000E+00  0.00000000000E+00 -1.05200000000E+00 9.78189E-01 1.00000E+00 8.02083E-03  5.2577E+02  3.9813E+02  1.4094E+01  2.6371E+01  2.6371E+01  2.6371E+01  8.2562E+00  3.3237E+01  5.2888E+02  4.2589E+01  1.4324E-11  1.4173E-02  1.4239E-02  1.4173E-02  1.4232E-02  1.4413E+00  1.4964E-02  1.4585E-02  1.3963E-02  1.3963E-02  1.4334E-02  1.4193E-02
  2.46000000000E+00  0.00000000000E+00 -5.45000000000E-01 0.00000E+00 0.00000E+00 0.00000E+00  5.4998E-05  5.5376E-05  5.6247E-14  1.6862E-04  1.6862E-04  1.6862E-04  5.6528E-05  5.3133E-14  5.3595E-14  5.5550E-14  5.3756E-14  5.2241E-05  5.2796E-05  5.2245E-05  5.2738E-05  5.1962E-03  5.8867E-05  5.3182E-05  4.9647E-05  4.9647E-05  5.2532E-05  5.1433E-05
  2.46000000000E+00  0.00000000000E+00 -5.45000000000E-01 8.57128E-01 1.00000E+00 8.12165E-03  5.3237E+02  4.0246E+02  1.4270E+01  2.6697E+01  2.6697E+01  2.6697E+01  8.3609E+00  3.3655E+01  5.3553E+02  4.3125E+01  1.4504E-11  1.4351E-02  1.4418E-02  1.4351E-02  1.4411E-02  1.4594E+00  1.5152E-02  4.8392E-03  1.4138E-02  1.4138E-02  1.4514E-02  1.4371E-02
  2.50900000000E+00  0.00000000000E+00 -5.56000000000E-01 0.00000E+00 0.00000E+00 0.00000E+00  3.3410E-01  2.5280E-01  8.9521E-03  8.3644E-02  8.3644E-02  8.3644E-02  2.6189E-02  2.1112E-02  3.3607E-01  2.7077E-02  3.8507E-14  4.5542E-01  3.7819E-05  3.7424E-05  3.7778E-05  3.7222E-03  4.2168E-05  3.8096E-05  3.5564E-05  3.5564E-05  3.7630E-05  3.6843E-05
  2.50900000000E+00  0.00000000000E+00 -5.56000000000E-01 9.30888E-01 1.00000E+00 8.11377E-03  5.3186E+02  4.0205E+02  1.4256E+01  2.6678E+01  2.6678E+01  2.6678E+01  8.3576E+00  3.3622E+01  5.3501E+02  4.3083E+01  1.4490E-11  1.4337E-02  1.4404E-02  1.4337E-02  1.4397E-02  1.4580E+00  1.5137E-02  3.7598E-03  1.4124E-02  1.4124E-02  1.4500E-02  1.4357E-02
  2.58700000000E+00  0.00000000000E+00 -5.74000000000E-01 0.00000E+00 0.00000E+00 0.00000E+00  9.7315E-01  7.3635E-01  2.6075E-02  2.4363E-01  2.4363E-01  2.4363E-01  7.6282E-02  6.1494E-02  9.7887E-01  7.8868E-02  1.1216E-13  1.3265E+00  1.1016E-04  1.0901E-04  1.1004E-04  1.0842E-02  1.2282E-04  1.1096E-04  1.0359E-04  1.0359E-04  1.0961E-04  1.0731E-04
  2.58700000000E+00  0.00000000000E+00 -5.74000000000E-01 9.60749E-01 1.00000E+00 8.10225E-03  5.3110E+02  4.0148E+02  1.4236E+01  2.6644E+01  2.6644E+01  2.6644E+01  8.3470E+00  3.3574E+01  5.3425E+02  4.3022E+01  1.4469E-11  1.4316E-02  1.4383E-02  1.4317E-02  1.4376E-02  1.4559E+00  1.5116E-02  1.3254E-02  1.4104E-02  1.4104E-02  1.4480E-02  1.4337E-02
  2.68500000000E+00  0.00000000000E+00 -5.95000000000E-01 0.00000E+00 0.00000E+00 0.00000E+00  1.2446E+00  9.4174E-01  3.3348E-02  3.1159E-01  3.1159E-01  3.1159E-01  9.7561E-02  7.8647E-02  1.2519E+00  1.0087E-01  1.4345E-13  1.6966E+00  1.4089E-04  1.3941E-04  1.4073E-04  1.3866E-02  1.5708E-04  1.4191E-04  1.3248E-04  1.3248E-04  1.4018E-04  1.3725E-04
  2.68500000000E+00  0.00000000000E+00 -5.95000000000E-01 9.71145E-01 1.00000E+00 8.08940E-03  5.3026E+02  4.0084E+02  1.4214E+01  2.6602E+01  2.6602E+01  2.6602E+01  8.3332E+00  3.3521E+01  5.3340E+02  4.2953E+01  1.4446E-11  1.4294E-02  1.4361E-02  1.4294E-02  1.4354E-02  1.4536E+00  1.5092E-02  1.4709E-02  1.4082E-02  1.4082E-02  1.4457E-02  1.4314E-02
  2.78200000000E+00  0.00000000000E+00 -6.17000000000E-01 1.75071E-02 1.75074E-03 1.22336E-04  2.2941E+00  1.7359E+00  6.1469E-02  5.7434E-01  5.7434E-01  5.7434E-01  1.7983E-01  1.4497E-01  2.3076E+00  1.8592E-01  2.6441E-13  3.1272E+00  2.5969E-04  2.5697E-04  2.5940E-04  2.5559E-02  2.8955E-04  2.6158E-04  2.4420E-04  2.4420E-04  2.5839E-04  2.5298E-04
  2.78200000000E+00  0.00000000000E+00 -6.17000000000E-01 9.75166E-01 1.00000E+00 8.07913E-03  5.2959E+02  4.0033E+02  1.4196E+01  2.6568E+01  2.6568E+01  2.6568E+01  8.3217E+00  3.3479E+01  5.3273E+02  4.2899E+01  1.4428E-11  1.4276E-02  1.4342E-02  1.4276E-02  1.4335E-02  1.4518E+00  1.5073E-02  1.4691E-02  1.4064E-02  1.4064E-02  1.4438E-02  1.4296E-02
  2.88000000000E+00  0.00000000000E+00 -6.38000000000E-01 2.24585E-02 2.58832E-03 1.40829E-04  2.6409E+00  1.9983E+00  7.0762E-02  6.6116E-01  6.6116E-01  6.6116E-01  2.0701E-01  1.6688E-01  2.6564E+00  2.1403E-01  3.0438E-13  3.5999E+00  2.9894E-04  2.9582E-04  2.9862E-04  2.9422E-02  3.3332E-04  3.0113E-04  2.8112E-04  2.8112E-04  2.9745E-04  2.9122E-04
  2.88000000000E+00  0.00000000000E+00 -6.38000000000E-01 9.76424E-01 1.00000E+00 8.07003E-03  5.2899E+02  3.9988E+02  1.4180E+01  2.6537E+01  2.6537E+01  2.6537E+01  8.3114E+00  3.3441E+01  5.3213E+02  4.2851E+01  1.4411E-11  1.4260E-02  1.4326E-02  1.4260E-02  1.4319E-02  1.4502E+00  1.5056E-02  1.4674E-02  1.4048E-02  1.4048E-02  1.4422E-02  1.4280E-02
  3.02700000000E+00  0.00000000000E+00 -6.71000000000E-01 2.69189E-02 3.43963E-03 1.55913E-04  2.9238E+00  2.2123E+00  7.8341E-02  7.3198E-01  7.3198E-01  7.3198E-01  2.2919E-01  1.8476E-01  2.9410E+00  2.3696E-01  3.3698E-13  3.9855E+00  3.3096E-04  3.2751E-04  3.3060E-04  3.2574E-02  3.6902E-04  3.3338E-04  3.1123E-04  3.1123E-04  3.2931E-04  3.2242E-04
  3.02700000000E+00  0.00000000000E+00 -6.71000000000E-01 9.77343E-01 1.00000E+00 8.05845E-03  5.2823E+02  3.9931E+02  1.4160E+01  2.6498E+01  2.6498E+01  2.6498E+01  8.2985E+00  3.3393E+01  5.3136E+02  4.2789E+01  1.4391E-11  1.4239E-02  1.4306E-02  1.4239E-02  1.4299E-02  1.4481E+00  1.5034E-02  1.4653E-02  1.4028E-02  1.4028E-02  1.4402E-02  1.4259E-02
  3.22200000000E+00  0.00000000000E+00 -7.14000000000E-01 3.14242E-02 4.38529E-03 1.70033E-04  3.1886E+00  2.4126E+00  8.5435E-02  7.9827E-01  7.9827E-01  7.9827E-01  2.4994E-01  2.0149E-01  3.2073E+00  2.5841E-01  3.6750E-13  4.3464E+00  3.6094E-04  3.5717E-04  3.6054E-04  3.5524E-02  4.0244E-04  3.6357E-04  3.3941E-04  3.3941E-04  3.5913E-04  3.5161E-04
  3.22200000000E+00  0.00000000000E+00 -7.14000000000E-01 9.78018E-01 1.00000E+00 8.04683E-03  5.2747E+02  3.9874E+02  1.4139E+01  2.6459E+01  2.6459E+01  2.6459E+01  8.2855E+00  3.3345E+01  5.3060E+02  4.2727E+01  1.4370E-11  1.4219E-02  1.4285E-02  1.4219E-02  1.4278E-02  1.4460E+00  1.5012E-02  1.4632E-02  1.4008E-02  1.4008E-02  1.4381E-02  1.4239E-02
  3.41700000000E+00  0.00000000000E+00 -7.58000000000E-01 3.53614E-02 5.27784E-03 1.81682E-04  3.4070E+00  2.5779E+00  9.1289E-02  8.5296E-01  8.5296E-01  8.5296E-01  2.6707E-01  2.1529E-01  3.4270E+00  2.7612E-01  3.9267E-13  4.6442E+00  3.8566E-04  3.8164E-04  3.8524E-04  3.7957E-02  4.3001E-04  3.8848E-04  3.6266E-04  3.6266E-04  3.8373E-04  3.7570E-04
  3.41700000000E+00  0.00000000000E+00 -7.58000000000E-01 9.78487E-01 1.00000E+00 8.03919E-03  5.2697E+02  3.9904E+02  1.4126E+01  2.6433E+01  2.6433E+01  2.6433E+01  8.2769E+00  3.3313E+01  5.3009E+02  4.2687E+01  1.4356E-11  1.4205E-02  1.4271E-02  1.4205E-02  1.4264E-02  1.4446E+00  1.4998E-02  1.4618E-02  1.3995E-02  1.3995E-02  1.4367E-02  1.4225E-02