Title="TOUGHREACT V4.13omp : Mineral Reaction Rate (mol/kg H2O/s)"
Variables= "X(m)"   "Y(m)"   "Z(m)"       "T(C)"   "microcline-b"     "albite-low"      "anorthite"   "smect-ca-cal"   "smect-na-cal"   "smect-mg-cal"         "illite"      "tridymite"     "cristoba-a"         "quartz"    "hydglassfe3"   "stell/10-r02"    "heul/10-r02"    "mord/10-r02"    "clpt/10-r02"    "sio2(amor.)"       "fluorite"      "sepiolite"          "nano3"           "kno3"         "halite"        "sylvite"
Zone T= "3.15569000E+07 sec" I=    4490 J=       1 K=       1 F=Point
  1.99900000000E+00  0.00000000000E+00 -1.53400000000E+00     87.779  2.431564E-12  5.762577E-11  2.345647E-14 -2.217896E-13 -8.508165E-14 -2.821309E-13 -5.924791E-13  0.000000E+00  0.000000E+00  0.000000E+00  0.000000E+00 -7.324867E-11  0.000000E+00  0.000000E+00  0.000000E+00  0.000000E+00  0.000000E+00 -3.989628E-13  0.000000E+00  0.000000E+00  0.000000E+00  0.000000E+00
  1.99900000000E+00  0.00000000000E+00 -1.53400000000E+00     87.773  1.294475E-10  2.003354E-10  5.156494E-12 -3.777069E-11 -1.466580E-11 -4.793921E-11 -7.857968E-11  0.000000E+00  0.000000E+00  0.000000E+00  0.000000E+00 -6.965133E-13  0.000000E+00  0.000000E+00  0.000000E+00  0.000000E+00  0.000000E+00 -1.383153E-11  0.000000E+00  0.000000E+00  0.000000E+00  0.000000E+00
  2.03900000000E+00  0.00000000000E+00 -1.56500000000E+00     86.719  2.320039E-12  5.366437E-11  2.253792E-14 -1.228115E-13 -4.855682E-14 -1.564319E-13 -3.566154E-13  0.000000E+00  0.000000E+00  0.000000E+00  0.000000E+00 -7.021886E-11  0.000000E+00  0.000000E+00  0.000000E+00  0.000000E+00  0.000000E+00 -4.344641E-13  0.000000E+00  0.000000E+00  0.000000E+00  0.000000E+00
  2.03900000000E+00  0.00000000000E+00 -1.56500000000E+00     86.719  1.117836E-10  1.698410E-10  4.823751E-12 -3.286045E-11 -1.291863E-11 -4.150164E-11 -6.613618E-11  0.000000E+00  0.000000E+00  0.000000E+00  0.000000E+00 -6.534362E-13  0.000000E+00  0.000000E+00  0.000000E+00  0.000000E+00  0.000000E+00 -1.116468E-11  0.000000E+00  0.000000E+00  0.000000E+00  0.000000E+00
  2.10200000000E+00  0.00000000000E+00 -1.61300000000E+00     85.052  2.314029E-12  5.118576E-11  2.104798E-14 -1.397909E-13 -5.542532E-14 -1.770296E-13 -3.595959E-13  0.000000E+00  0.000000E+00  0.000000E+00  0.000000E+00 -6.690466E-11  0.000000E+00  0.000000E+00  0.000000E+00  0.000000E+00  0.000000E+00 -2.798175E-13  0.000000E+00  0.000000E+00  0.000000E+00  0.000000E+00
  2.10200000000E+00  0.00000000000E+00 -1.61300000000E+00     85.052  1.069331E-10  1.701253E-10  4.336774E-12 -3.283269E-11 -1.294713E-11 -4.124197E-11 -6.368793E-11  0.000000E+00  0.000000E+00  0.000000E+00  0.000000E+00 -6.066571E-13  0.000000E+00  0.000000E+00  0.000000E+00  0.000000E+00  0.000000E+00 -7.433394E-12  0.000000E+00  0.000000E+00  0.000000E+00  0.000000E+00
  2.18200000000E+00  0.00000000000E+00 -1.67400000000E+00     83.017  2.306737E-12  4.823513E-11  1.925254E-14 -1.620331E-13 -6.429392E-14 -2.038119E-13 -3.662839E-13  0.000000E+00  0.000000E+00  0.000000E+00  0.000000E+00 -6.296763E-11  0.000000E+00  0.000000E+00  0.000000E+00  0.000000E+00  0.000000E+00 -1.681700E-13  0.000000E+00  0.000000E+00  0.000000E+00  0.000000E+00
  2.18200000000E+00  0.00000000000E+00 -1.67400000000E+00     83.017  1.032629E-10  1.758115E-10  3.803465E-12 -3.363431E-11 -1.327329E-11 -4.198743E-11 -6.256524E-11  0.000000E+00  0.000000E+00  0.000000E+00  0.000000E+00 -5.573266E-13  0.000000E+00  0.000000E+00  0.000000E+00  0.000000E+00  0.000000E+00 -4.559383E-12  0.000000E+00  0.000000E+00  0.000000E+00  0.000000E+00
  2.26100000000E+00  0.00000000000E+00 -1.73500000000E+00     81.049  2.288234E-12  4.531582E-11  1.758609E-14 -1.801592E-13 -7.150910E-14 -2.250749E-13 -3.687969E-13  0.000000E+00  0.000000E+00  0.000000E+00  0.000000E+00 -5.909427E-11  0.000000E+00  0.000000E+00  0.000000E+00  0.000000E+00  0.000000E+00 -1.051301E-13  0.000000E+00  0.000000E+00  0.000000E+00  0.000000E+00
  2.26100000000E+00  0.00000000000E+00 -1.73500000000E+00     81.049  9.977982E-11  1.814729E-10  3.345533E-12 -3.440181E-11 -1.357733E-11 -4.267017E-11 -6.169376E-11  0.000000E+00  0.000000E+00  0.000000E+00  0.000000E+00 -5.132163E-13  0.000000E+00  0.000000E+00  0.000000E+00  0.000000E+00  0.000000E+00 -2.834794E-12  0.000000E+00  0.000000E+00  0.000000E+00  0.000000E+00
  2.34000000000E+00  0.00000000000E+00 -1.79600000000E+00     79.155  2.261217E-12  4.248487E-11  1.606987E-14 -1.946251E-13 -7.727204E-14 -2.415093E-13 -3.682792E-13  0.000000E+00  0.000000E+00  0.000000E+00  0.000000E+00 -5.535520E-11  0.000000E+00  0.000000E+00  0.000000E+00  0.000000E+00  0.000000E+00 -6.792001E-14  0.000000E+00  0.000000E+00  0.000000E+00  0.000000E+00
  2.34000000000E+00  0.00000000000E+00 -1.79600000000E+00     79.154  9.632442E-11  1.864063E-10  2.952930E-12 -3.503090E-11 -1.382385E-11 -4.316501E-11 -6.087259E-11  0.000000E+00  0.000000E+00  0.000000E+00  0.000000E+00 -4.731672E-13  0.000000E+00  0.000000E+00  0.000000E+00  0.000000E+00  0.000000E+00 -1.789716E-12  0.000000E+00  0.000000E+00  0.000000E+00  0.000000E+00
  2.45900000000E+00  0.00000000000E+00 -1.88700000000E+00     76.454  2.212494E-12  3.849948E-11  1.406930E-14 -2.117350E-13 -8.408931E-14 -2.601556E-13 -3.652072E-13  0.000000E+00  0.000000E+00  0.000000E+00  0.000000E+00 -5.009552E-11  0.000000E+00  0.000000E+00  0.000000E+00  0.000000E+00  0.000000E+00 -3.703051E-14  0.000000E+00  0.000000E+00  0.000000E+00  0.000000E+00
  2.45900000000E+00  0.00000000000E+00 -1.88700000000E+00     76.453  9.119064E-11  1.919255E-10  2.465864E-12 -3.565716E-11 -1.406772E-11 -4.350582E-11 -5.957142E-11  0.000000E+00  0.000000E+00  0.000000E+00  0.000000E+00 -4.196461E-13  0.000000E+00  0.000000E+00  0.000000E+00  0.000000E+00  0.000000E+00 -9.308899E-13  0.000000E+00  0.000000E+00  0.000000E+00  0.000000E+00
  2.61800000000E+00  0.00000000000E+00 -2.00900000000E+00     73.110  2.130086E-12  3.370566E-11  1.184926E-14 -2.251860E-13 -8.951933E-14 -2.732248E-13 -3.546015E-13  0.000000E+00  0.000000E+00  0.000000E+00  0.000000E+00 -4.380638E-11  0.000000E+00  0.000000E+00  0.000000E+00  0.000000E+00  0.000000E+00 -1.793698E-14  0.000000E+00  0.000000E+00  0.000000E+00  0.000000E+00
  2.61800000000E+00  0.00000000000E+00 -2.00900000000E+00     73.110  8.424678E-11  1.951265E-10  1.965251E-12 -3.582446E-11 -1.413554E-11 -4.316279E-11 -5.741685E-11  0.000000E+00  0.000000E+00  0.000000E+00  0.000000E+00 -3.588926E-13  7.603826E-14  0.000000E+00  2.359014-143  0.000000E+00  0.000000E+00 -4.203811E-13  0.000000E+00  0.000000E+00  0.000000E+00  0.000000E+00
  2.77700000000E+00  0.00000000000E+00 -2.13100000000E+00     70.040  2.043830E-12  2.955076E-11  1.005422E-14 -2.325312E-13 -9.255143E-14 -2.788748E-13 -3.416822E-13  0.000000E+00  0.000000E+00  0.000000E+00  0.000000E+00 -3.836790E-11  0.000000E+00  0.000000E+00  0.000000E+00  0.000000E+00  0.000000E+00 -9.366835E-15  0.000000E+00  0.000000E+00  0.000000E+00  0.000000E+00
  2.77700000000E+00  0.00000000000E+00 -2.13100000000E+00     70.039  7.769028E-11  1.946871E-10  1.589443E-12 -3.543462E-11 -1.399026E-11 -4.219555E-11 -5.495915E-11  0.000000E+00  0.000000E+00  0.000000E+00  0.000000E+00 -3.085641E-13  5.661924E-14  0.000000E+00  3.707698E-52  0.000000E+00  0.000000E+00 -2.054851E-13  0.000000E+00  0.000000E+00  0.000000E+00  0.000000E+00
  2.97500000000E+00  0.00000000000E+00 -2.28300000000E+00     66.533  1.937661E-12  2.510831E-11  8.251141E-15 -2.370056E-13 -9.446318E-14 -2.804970E-13 -3.256167E-13  0.000000E+00  0.000000E+00  0.000000E+00  0.000000E+00 -3.254851E-11  0.000000E+00  0.000000E+00  0.000000E+00  0.000000E+00  0.000000E+00 -4.486671E-15  0.000000E+00  0.000000E+00  0.000000E+00  0.000000E+00
  2.97500000000E+00  0.00000000000E+00 -2.28300000000E+00     66.533  7.014579E-11  1.896705E-10  1.241667E-12 -3.431010E-11 -1.356686E-11 -4.031269E-11 -5.149185E-11  0.000000E+00  0.000000E+00  0.000000E+00  0.000000E+00 -2.573893E-13  3.931201E-14  0.000000E+00  2.438500E-14  0.000000E+00  0.000000E+00 -9.288476E-14  0.000000E+00  0.000000E+00  0.000000E+00  0.000000E+00
  3.21300000000E+00  0.00000000000E+00 -2.46500000000E+00     62.738  1.798622E-12  2.068912E-11  6.573004E-15 -2.316752E-13 -9.260114E-14 -2.702304E-13 -2.994179E-13  0.000000E+00  0.000000E+00  0.000000E+00  0.000000E+00 -2.680552E-11  0.000000E+00  0.000000E+00  0.000000E+00  0.000000E+00  0.000000E+00 -2.072616E-15  0.000000E+00  0.000000E+00  0.000000E+00  0.000000E+00
  3.21300000000E+00  0.00000000000E+00 -2.46500000000E+00     62.738  6.143204E-11  1.773809E-10  9.450499E-13 -3.202784E-11 -1.270767E-11 -3.709366E-11 -4.648188E-11  0.000000E+00  0.000000E+00  0.000000E+00  0.000000E+00 -2.092601E-13  2.528822E-14  0.000000E+00  1.739096E-14  0.000000E+00  0.000000E+00 -4.128036E-14  0.000000E+00  0.000000E+00  0.000000E+00  0.000000E+00
  3.76800000000E+00  0.00000000000E+00 -2.89200000000E+00     55.340  1.464874E-12  1.363505E-11  4.105470E-15 -1.781639E-13 -7.233093E-14 -2.016691E-13 -2.052433E-13  0.000000E+00  0.000000E+00  0.000000E+00  0.000000E+00 -1.791804E-11  0.000000E+00  0.000000E+00  0.000000E+00  0.000000E+00  0.000000E+00 -5.686971E-16  0.000000E+00  0.000000E+00  0.000000E+00  0.000000E+00
  3.76800000000E+00  0.00000000000E+00 -2.89200000000E+00     55.340  4.288148E-11  1.327058E-10  5.453756E-13 -2.436548E-11 -9.811356E-12 -2.745707E-11 -3.276782E-11  0.000000E+00  0.000000E+00  0.000000E+00  0.000000E+00 -1.359839E-13  8.013409E-15  0.000000E+00  8.125970E-15  0.000000E+00  0.000000E+00 -1.100433E-14  0.000000E+00  0.000000E+00  0.000000E+00  0.000000E+00
  4.16500000000E+00  0.00000000000E+00 -3.19600000000E+00     50.968  1.286272E-12  1.040463E-11  3.045902E-15 -1.430850E-13 -5.877171E-14 -1.591257E-13 -1.526744E-13  0.000000E+00  0.000000E+00  0.000000E+00  0.000000E+00 -1.386735E-11  0.000000E+00  0.000000E+00  0.000000E+00  0.000000E+00  0.000000E+00 -2.903205E-16  0.000000E+00  0.000000E+00  0.000000E+00  0.000000E+00
  4.16500000000E+00  0.00000000000E+00 -3.19600000000E+00     50.968  3.330621E-11  1.009632E-10  3.895651E-13 -1.909411E-11 -7.794329E-12 -2.118283E-11 -2.421911E-11  0.000000E+00  0.000000E+00  0.000000E+00  0.000000E+00 -1.041781E-13  2.043131E-15  0.000000E+00  4.586541E-15  0.000000E+00  0.000000E+00 -6.248614E-15  0.000000E+00  0.000000E+00  0.000000E+00  0.000000E+00
  4.64100000000E+00  0.00000000000E+00 -3.56100000000E+00     46.538  1.117239E-12  7.750056E-12  2.211733E-15 -1.059636E-13 -4.418471E-14 -1.157762E-13 -1.027482E-13  0.000000E+00  0.000000E+00  0.000000E+00  0.000000E+00 -1.056067E-11  0.000000E+00  0.000000E+00  0.000000E+00  0.000000E+00  0.000000E+00 -1.718111E-16  0.000000E+00  0.000000E+00  0.000000E+00  0.000000E+00
  4.64100000000E+00  0.00000000000E+00 -3.56100000000E+00     46.538  2.485438E-11  6.943738E-11  2.744817E-13 -1.381992E-11 -5.746093E-12 -1.509999E-11 -1.622457E-11  0.000000E+00  0.000000E+00  0.000000E+00  0.000000E+00 -7.909889E-14 -1.908817E-15  0.000000E+00  1.989387E-15  0.000000E+00  0.000000E+00 -4.626850E-15  0.000000E+00  0.000000E+00  0.000000E+00  0.000000E+00
  2.28400000000E+00  0.00000000000E+00 -1.06500000000E+00     97.975 -1.312541E-15 -6.172712E-14  0.000000E+00 -3.957397E-15 -1.763426E-15 -5.166546E-15 -8.810174E-15  0.000000E+00  0.000000E+00  0.000000E+00  0.000000E+00 -2.823674E-14 -4.362385E-15 -8.860891E-16 -1.294492E-15 -1.124765E-14  0.000000E+00 -4.478237E-12  0.000000E+00  0.000000E+00  0.000000E+00  0.000000E+00
  2.28400000000E+00  0.00000000000E+00 -1.06500000000E+00     97.986  1.246570E-10  6.047300E-11  9.659632E-12 -1.758364E-11 -6.656757E-12 -2.112776E-11 -5.968951E-11  0.000000E+00  0.000000E+00  0.000000E+00  0.000000E+00 -1.119499E-12  0.000000E+00  0.000000E+00  0.000000E+00  0.000000E+00  0.000000E+00 -3.784459E-11  0.000000E+00  0.000000E+00  0.000000E+00  0.000000E+00
  2.32900000000E+00  0.00000000000E+00 -1.08600000000E+00     96.430  6.376061E-13  1.629022E-11  8.627804E-15  6.584021E-14  2.820718E-14  6.584023E-14  3.997630E-14  0.000000E+00  0.000000E+00  0.000000E+00  0.000000E+00 -2.529194E-11  0.000000E+00  0.000000E+00  0.000000E+00  0.000000E+00  0.000000E+00 -5.702770E-12  0.000000E+00  0.000000E+00  0.000000E+00  0.000000E+00
  2.32900000000E+00  0.00000000000E+00 -1.08600000000E+00     96.435  1.252607E-10  1.048985E-10  8.801604E-12 -2.323163E-11 -8.889817E-12 -2.802811E-11 -6.800539E-11  0.000000E+00  0.000000E+00  0.000000E+00  0.000000E+00 -1.026358E-12  0.000000E+00  0.000000E+00  0.000000E+00  0.000000E+00  0.000000E+00 -2.279890E-11  0.000000E+00  0.000000E+00  0.000000E+00  0.000000E+00
  2.40200000000E+00  0.00000000000E+00 -1.12000000000E+00     94.156  1.811553E-12  4.925314E-11  2.601318E-14  1.786073E-13  7.651873E-14  1.786074E-13  8.168507E-14  0.000000E+00  0.000000E+00  0.000000E+00  0.000000E+00 -7.034694E-11  0.000000E+00  0.000000E+00  0.000000E+00  0.000000E+00  0.000000E+00 -1.254942E-11  0.000000E+00  0.000000E+00  0.000000E+00  0.000000E+00
  2.40200000000E+00  0.00000000000E+00 -1.12000000000E+00     94.175  1.258729E-10  1.311631E-10  7.674406E-12 -2.750164E-11 -1.070870E-11 -3.402735E-11 -6.964178E-11  0.000000E+00  0.000000E+00  0.000000E+00  0.000000E+00 -9.007317E-13  0.000000E+00  0.000000E+00  0.000000E+00  0.000000E+00  0.000000E+00 -3.146181E-11  0.000000E+00  0.000000E+00  0.000000E+00  0.000000E+00
  2.49200000000E+00  0.00000000000E+00 -1.16200000000E+00     91.708  2.429613E-12  6.368777E-11  2.932205E-14 -2.966949E-14 -1.171650E-14 -3.783714E-14 -3.072039E-13  0.000000E+00  0.000000E+00  0.000000E+00  0.000000E+00 -8.344742E-11  0.000000E+00  0.000000E+00  0.000000E+00  0.000000E+00  0.000000E+00 -1.766161E-12  0.000000E+00  0.000000E+00  0.000000E+00  0.000000E+00
  2.49200000000E+00  0.00000000000E+00 -1.16200000000E+00     91.707  1.222380E-10  1.553922E-10  6.594519E-12 -3.071293E-11 -1.203116E-11 -3.853498E-11 -7.098546E-11  0.000000E+00  0.000000E+00  0.000000E+00  0.000000E+00 -8.015812E-13  0.000000E+00  0.000000E+00  0.000000E+00  0.000000E+00  0.000000E+00 -2.192341E-11  0.000000E+00  0.000000E+00  0.000000E+00  0.000000E+00
  2.58300000000E+00  0.00000000000E+00 -1.20400000000E+00     89.482  2.550006E-12  6.310230E-11  2.798756E-14 -8.087266E-14 -3.209421E-14 -1.032153E-13 -3.528880E-13  0.000000E+00  0.000000E+00  0.000000E+00  0.000000E+00 -8.265314E-11  0.000000E+00  0.000000E+00  0.000000E+00  0.000000E+00  0.000000E+00 -8.869698E-13  0.000000E+00  0.000000E+00  0.000000E+00  0.000000E+00
  2.58300000000E+00  0.00000000000E+00 -1.20400000000E+00     89.481  1.185030E-10  1.620002E-10  5.741806E-12 -3.193392E-11 -1.256159E-11 -4.020744E-11 -6.864843E-11  0.000000E+00  0.000000E+00  0.000000E+00  0.000000E+00 -7.300155E-13  0.000000E+00  0.000000E+00  0.000000E+00  0.000000E+00  0.000000E+00 -1.482736E-11  0.000000E+00  0.000000E+00  0.000000E+00  0.000000E+00
  2.67400000000E+00  0.00000000000E+00 -1.24700000000E+00     87.462  2.623901E-12  6.160022E-11  2.631573E-14 -1.241358E-13 -4.929928E-14 -1.578559E-13 -3.883405E-13  0.000000E+00  0.000000E+00  0.000000E+00  0.000000E+00 -8.050767E-11  0.000000E+00  0.000000E+00  0.000000E+00  0.000000E+00  0.000000E+00 -4.927463E-13  0.000000E+00  0.000000E+00  0.000000E+00  0.000000E+00
  2.67400000000E+00  0.00000000000E+00 -1.24700000000E+00     87.462  1.155843E-10  1.696290E-10  5.056588E-12 -3.320411E-11 -1.308126E-11 -4.175282E-11 -6.743535E-11  0.000000E+00  0.000000E+00  0.000000E+00  0.000000E+00 -6.738654E-13  0.000000E+00  0.000000E+00  0.000000E+00  0.000000E+00  0.000000E+00 -9.748808E-12  0.000000E+00  0.000000E+00  0.000000E+00  0.000000E+00
  2.81000000000E+00  0.00000000000E+00 -1.31000000000E+00     84.765  2.671791E-12  5.849662E-11  2.382780E-14 -1.720983E-13 -6.832660E-14 -2.170735E-13 -4.199162E-13  0.000000E+00  0.000000E+00  0.000000E+00  0.000000E+00 -7.623923E-11  0.000000E+00  0.000000E+00  0.000000E+00  0.000000E+00  0.000000E+00 -2.351904E-13  0.000000E+00  0.000000E+00  0.000000E+00  0.000000E+00
  2.81000000000E+00  0.00000000000E+00 -1.31000000000E+00     84.764  1.116045E-10  1.808903E-10  4.257580E-12 -3.493093E-11 -1.376664E-11 -4.366662E-11 -6.651662E-11  0.000000E+00  0.000000E+00  0.000000E+00  0.000000E+00 -6.062078E-13  0.000000E+00  0.000000E+00  0.000000E+00  0.000000E+00  0.000000E+00 -5.203100E-12  0.000000E+00  0.000000E+00  0.000000E+00  0.000000E+00
  2.99100000000E+00  0.00000000000E+00 -1.39500000000E+00     81.674  2.689031E-12  5.422269E-11  2.101963E-14 -2.159201E-13 -8.566773E-14 -2.692773E-13 -4.407387E-13  0.000000E+00  0.000000E+00  0.000000E+00  0.000000E+00 -7.047622E-11  0.000000E+00  0.000000E+00  0.000000E+00  0.000000E+00  0.000000E+00 -1.062015E-13  0.000000E+00  0.000000E+00  0.000000E+00  0.000000E+00
  2.99100000000E+00  0.00000000000E+00 -1.39500000000E+00     81.674  1.067898E-10  1.935532E-10  3.485299E-12 -3.675928E-11 -1.447744E-11 -4.549459E-11 -6.586387E-11  0.000000E+00  0.000000E+00  0.000000E+00  0.000000E+00 -5.355011E-13  0.000000E+00  0.000000E+00  0.000000E+00  0.000000E+00  0.000000E+00 -2.400421E-12  0.000000E+00  0.000000E+00  0.000000E+00  0.000000E+00
  3.17200000000E+00  0.00000000000E+00 -1.47900000000E+00     79.045  2.696906E-12  5.039948E-11  1.879155E-14 -2.492928E-13 -9.881008E-14 -3.077795E-13 -4.544974E-13  0.000000E+00  0.000000E+00  0.000000E+00  0.000000E+00 -6.533586E-11  0.000000E+00  0.000000E+00  0.000000E+00  0.000000E+00  0.000000E+00 -5.555094E-14  0.000000E+00  0.000000E+00  0.000000E+00  0.000000E+00
  3.17200000000E+00  0.00000000000E+00 -1.47900000000E+00     79.045  1.027874E-10  2.036254E-10  2.931566E-12 -3.817458E-11 -1.501838E-11 -4.678655E-11 -6.551041E-11  0.000000E+00  0.000000E+00  0.000000E+00  0.000000E+00 -4.799187E-13  0.000000E+00  0.000000E+00  0.000000E+00  0.000000E+00  0.000000E+00 -1.216988E-12  0.000000E+00  0.000000E+00  0.000000E+00  0.000000E+00
  2.40300000000E+00  0.00000000000E+00 -7.58000000000E-01    100.766 -2.933195E-16 -1.396128E-14  0.000000E+00 -9.648747E-16 -4.411112E-16 -1.260680E-15 -2.364858E-15  0.000000E+00  0.000000E+00  0.000000E+00  0.000000E+00 -5.202709E-15 -9.056327E-16 -2.694681E-16 -2.746363E-16 -5.070082E-14  0.000000E+00 -1.151631E-12  0.000000E+00  0.000000E+00  0.000000E+00  0.000000E+00
  2.40300000000E+00  0.00000000000E+00 -7.58000000000E-01    100.766  1.288741E-10  5.426865E-11  1.139086E-11 -1.523055E-11 -5.677102E-12 -1.756415E-11 -6.616723E-11  0.000000E+00  0.000000E+00  0.000000E+00  0.000000E+00 -1.279689E-12  0.000000E+00  0.000000E+00  0.000000E+00  0.000000E+00  0.000000E+00 -3.836322E-11  0.000000E+00  0.000000E+00  0.000000E+00  0.000000E+00
  2.45100000000E+00  0.00000000000E+00 -7.73000000000E-01     99.392  5.086988E-13  1.245810E-11  7.877429E-15  5.913119E-14  2.533291E-14  5.913120E-14  3.540266E-14  0.000000E+00  0.000000E+00  0.000000E+00  0.000000E+00 -2.503627E-11  0.000000E+00  0.000000E+00  0.000000E+00  0.000000E+00  0.000000E+00 -6.088538E-12  0.000000E+00  0.000000E+00  0.000000E+00  0.000000E+00
  2.45100000000E+00  0.00000000000E+00 -7.73000000000E-01     99.394  1.280619E-10  8.532754E-11  1.050438E-11 -1.933356E-11 -7.313664E-12 -2.260815E-11 -7.098722E-11  0.000000E+00  0.000000E+00  0.000000E+00  0.000000E+00 -1.162076E-12  0.000000E+00  0.000000E+00  0.000000E+00  0.000000E+00  0.000000E+00 -1.899540E-11  0.000000E+00  0.000000E+00  0.000000E+00  0.000000E+00
  2.52700000000E+00  0.00000000000E+00 -7.97000000000E-01     97.346  8.885773E-13  2.388434E-11  1.361820E-14  1.173607E-13  5.027951E-14  1.173607E-13  7.576899E-14  0.000000E+00  0.000000E+00  0.000000E+00  0.000000E+00 -3.589496E-11  0.000000E+00  0.000000E+00  0.000000E+00  0.000000E+00  0.000000E+00 -2.231692E-11  0.000000E+00  0.000000E+00  0.000000E+00  0.000000E+00
  2.52700000000E+00  0.00000000000E+00 -7.97000000000E-01     97.357  1.298591E-10  1.183606E-10  9.304360E-12 -2.472753E-11 -9.554787E-12 -2.966699E-11 -7.405607E-11  0.000000E+00  0.000000E+00  0.000000E+00  0.000000E+00 -1.027748E-12  0.000000E+00  0.000000E+00  0.000000E+00  0.000000E+00  0.000000E+00 -3.329606E-11  0.000000E+00  0.000000E+00  0.000000E+00  0.000000E+00
  2.62300000000E+00  0.00000000000E+00 -8.27000000000E-01     95.076  2.041249E-12  5.668028E-11  3.086097E-14  2.037655E-13  8.729695E-14  2.037655E-13  7.217827E-14  0.000000E+00  0.000000E+00  0.000000E+00  0.000000E+00 -7.960275E-11  0.000000E+00  0.000000E+00  0.000000E+00  0.000000E+00  0.000000E+00 -1.696144E-11  0.000000E+00  0.000000E+00  0.000000E+00  0.000000E+00
  2.62300000000E+00  0.00000000000E+00 -8.27000000000E-01     95.093  1.289401E-10  1.369106E-10  8.116132E-12 -2.797637E-11 -1.092786E-11 -3.454227E-11 -7.329664E-11  0.000000E+00  0.000000E+00  0.000000E+00  0.000000E+00 -9.178235E-13  0.000000E+00  0.000000E+00  0.000000E+00  0.000000E+00  0.000000E+00 -2.840585E-11  0.000000E+00  0.000000E+00  0.000000E+00  0.000000E+00
  2.71800000000E+00  0.00000000000E+00 -8.57000000000E-01     93.150  2.674647E-12  7.285729E-11  3.390045E-14 -4.485164E-14 -1.753545E-14 -5.694324E-14 -4.174432E-13  0.000000E+00  0.000000E+00  0.000000E+00  0.000000E+00 -9.395085E-11  0.000000E+00  0.000000E+00  0.000000E+00  0.000000E+00  0.000000E+00 -2.125955E-12  0.000000E+00  0.000000E+00  0.000000E+00  0.000000E+00
  2.71800000000E+00  0.00000000000E+00 -8.57000000000E-01     93.144  1.275432E-10  1.553347E-10  7.205149E-12 -3.078855E-11 -1.205980E-11 -3.848352E-11 -7.406019E-11  0.000000E+00  0.000000E+00  0.000000E+00  0.000000E+00 -8.477811E-13  0.000000E+00  0.000000E+00  0.000000E+00  0.000000E+00  0.000000E+00 -2.263289E-11  0.000000E+00  0.000000E+00  0.000000E+00  0.000000E+00
  2.81300000000E+00  0.00000000000E+00 -8.87000000000E-01     91.372  2.794038E-12  7.248909E-11  3.308041E-14 -6.509442E-14 -2.579758E-14 -8.308382E-14 -3.885689E-13  0.000000E+00  0.000000E+00  0.000000E+00  0.000000E+00 -9.468895E-11  0.000000E+00  0.000000E+00  0.000000E+00  0.000000E+00  0.000000E+00 -1.288492E-12  0.000000E+00  0.000000E+00  0.000000E+00  0.000000E+00
  2.81300000000E+00  0.00000000000E+00 -8.87000000000E-01     91.371  1.253995E-10  1.612223E-10  6.459054E-12 -3.206894E-11 -1.260280E-11 -4.030662E-11 -7.204436E-11  0.000000E+00  0.000000E+00  0.000000E+00  0.000000E+00 -7.903702E-13  0.000000E+00  0.000000E+00  0.000000E+00  0.000000E+00  0.000000E+00 -1.718816E-11  0.000000E+00  0.000000E+00  0.000000E+00  0.000000E+00
  2.95700000000E+00  0.00000000000E+00 -9.32000000000E-01     89.053  2.917331E-12  7.150509E-11  3.116672E-14 -1.232781E-13 -4.896827E-14 -1.568827E-13 -4.346782E-13  0.000000E+00  0.000000E+00  0.000000E+00  0.000000E+00 -9.329649E-11  0.000000E+00  0.000000E+00  0.000000E+00  0.000000E+00  0.000000E+00 -6.240037E-13  0.000000E+00  0.000000E+00  0.000000E+00  0.000000E+00
  2.95700000000E+00  0.00000000000E+00 -9.32000000000E-01     89.053  1.225336E-10  1.715443E-10  5.589706E-12 -3.388113E-11 -1.334018E-11 -4.260693E-11 -7.069176E-11  0.000000E+00  0.000000E+00  0.000000E+00  0.000000E+00 -7.235161E-13  0.000000E+00  0.000000E+00  0.000000E+00  0.000000E+00  0.000000E+00 -1.081728E-11  0.000000E+00  0.000000E+00  0.000000E+00  0.000000E+00
  3.14700000000E+00  0.00000000000E+00 -9.92000000000E-01     86.535  3.016675E-12  6.942616E-11  2.883850E-14 -1.798271E-13 -7.142857E-14 -2.271369E-13 -4.763250E-13  0.000000E+00  0.000000E+00  0.000000E+00  0.000000E+00 -9.034322E-11  0.000000E+00  0.000000E+00  0.000000E+00  0.000000E+00  0.000000E+00 -3.000000E-13  0.000000E+00  0.000000E+00  0.000000E+00  0.000000E+00
  3.14700000000E+00  0.00000000000E+00 -9.92000000000E-01     86.535  1.194924E-10  1.843298E-10  4.767824E-12 -3.594697E-11 -1.415732E-11 -4.498316E-11 -7.014558E-11  0.000000E+00  0.000000E+00  0.000000E+00  0.000000E+00 -6.583974E-13  0.000000E+00  0.000000E+00  0.000000E+00  0.000000E+00  0.000000E+00 -5.921828E-12  0.000000E+00  0.000000E+00  0.000000E+00  0.000000E+00
  3.33800000000E+00  0.00000000000E+00 -1.05200000000E+00     84.579  3.086161E-12  6.763710E-11  2.711855E-14 -2.201928E-13 -8.740710E-14 -2.759750E-13 -5.048975E-13  0.000000E+00  0.000000E+00  0.000000E+00  0.000000E+00 -8.781729E-11  0.000000E+00  0.000000E+00  0.000000E+00  0.000000E+00  0.000000E+00 -1.730747E-13  0.000000E+00  0.000000E+00  0.000000E+00  0.000000E+00
  3.33800000000E+00  0.00000000000E+00 -1.05200000000E+00     84.579  1.169944E-10  1.948225E-10  4.207120E-12 -3.756095E-11 -1.478467E-11 -4.671036E-11 -7.010139E-11  0.000000E+00  0.000000E+00  0.000000E+00  0.000000E+00 -6.115557E-13  0.000000E+00  0.000000E+00  0.000000E+00  0.000000E+00  0.000000E+00 -3.538577E-12  0.000000E+00  0.000000E+00  0.000000E+00  0.000000E+00
  2.46000000000E+00  0.00000000000E+00 -5.45000000000E-01    101.966 -6.053269E-15 -2.916605E-13  0.000000E+00 -1.947348E-14 -9.041781E-15 -2.543211E-14 -4.874292E-14  0.000000E+00  0.000000E+00  0.000000E+00  0.000000E+00 -9.951500E-14 -1.779260E-14 -5.865635E-15 -5.485844E-15 -1.187203E-12  0.000000E+00 -2.656547E-11  0.000000E+00  0.000000E+00  0.000000E+00  0.000000E+00
  2.46000000000E+00  0.00000000000E+00 -5.45000000000E-01    101.965  1.294508E-10  4.552943E-11  1.222088E-11 -1.340190E-11 -4.968041E-12 -1.516285E-11 -6.715753E-11  0.000000E+00  0.000000E+00  0.000000E+00  0.000000E+00 -1.355945E-12  0.000000E+00  0.000000E+00  0.000000E+00  0.000000E+00  0.000000E+00 -3.772571E-11  0.000000E+00  0.000000E+00  0.000000E+00  0.000000E+00
  2.50900000000E+00  0.00000000000E+00 -5.56000000000E-01    100.691  2.510937E-13  5.600861E-12  4.656051E-15  3.474895E-14  1.488710E-14  3.474895E-14  2.097593E-14  0.000000E+00  0.000000E+00  0.000000E+00  0.000000E+00 -1.656073E-11  0.000000E+00  0.000000E+00  0.000000E+00  0.000000E+00  0.000000E+00 -5.077731E-12  0.000000E+00  0.000000E+00  0.000000E+00  0.000000E+00
  2.50900000000E+00  0.00000000000E+00 -5.56000000000E-01    100.693  1.281888E-10  7.391722E-11  1.134296E-11 -1.723769E-11 -6.492722E-12 -1.991595E-11 -7.111238E-11  0.000000E+00  0.000000E+00  0.000000E+00  0.000000E+00 -1.229512E-12  0.000000E+00  0.000000E+00  0.000000E+00  0.000000E+00  0.000000E+00 -1.958532E-11  0.000000E+00  0.000000E+00  0.000000E+00  0.000000E+00
  2.58700000000E+00  0.00000000000E+00 -5.74000000000E-01     98.797  9.618053E-13  2.581138E-11  1.486686E-14  1.321611E-13  5.662028E-14  1.321611E-13  8.829219E-14  0.000000E+00  0.000000E+00  0.000000E+00  0.000000E+00 -3.879249E-11  0.000000E+00  0.000000E+00  0.000000E+00  0.000000E+00  0.000000E+00 -3.136498E-11  0.000000E+00  0.000000E+00  0.000000E+00  0.000000E+00
  2.58700000000E+00  0.00000000000E+00 -5.74000000000E-01     98.800  1.315081E-10  1.086520E-10  1.014244E-11 -2.292020E-11 -8.820827E-12 -2.705844E-11 -7.528152E-11  0.000000E+00  0.000000E+00  0.000000E+00  0.000000E+00 -1.093086E-12  0.000000E+00  0.000000E+00  0.000000E+00  0.000000E+00  0.000000E+00 -3.000245E-11  0.000000E+00  0.000000E+00  0.000000E+00  0.000000E+00
  2.68500000000E+00  0.00000000000E+00 -5.95000000000E-01     96.617  1.206994E-12  3.309862E-11  1.983047E-14  1.922354E-13  8.235724E-14  1.922354E-13  1.373043E-13  0.000000E+00  0.000000E+00  0.000000E+00  0.000000E+00 -4.907659E-11  0.000000E+00  0.000000E+00  0.000000E+00  0.000000E+00  0.000000E+00 -7.630076E-11  0.000000E+00  0.000000E+00  0.000000E+00  0.000000E+00
  2.68500000000E+00  0.00000000000E+00 -5.95000000000E-01     96.659  1.293800E-10  1.197679E-10  8.922413E-12 -2.555802E-11 -9.984559E-12 -3.123488E-11 -7.174855E-11  0.000000E+00  0.000000E+00  0.000000E+00  0.000000E+00 -9.770537E-13  0.000000E+00  0.000000E+00  0.000000E+00  0.000000E+00  0.000000E+00 -3.064005E-11  0.000000E+00  0.000000E+00  0.000000E+00  0.000000E+00
  2.78200000000E+00  0.00000000000E+00 -6.17000000000E-01     94.932  2.534203E-12  7.191920E-11  3.480247E-14  2.823825E-14  1.209780E-14  2.823826E-14 -3.280863E-13  0.000000E+00  0.000000E+00  0.000000E+00  0.000000E+00 -9.238023E-11  0.000000E+00  0.000000E+00  0.000000E+00  0.000000E+00  0.000000E+00 -4.920481E-12  0.000000E+00  0.000000E+00  0.000000E+00  0.000000E+00
  2.78200000000E+00  0.00000000000E+00 -6.17000000000E-01     94.924  1.315702E-10  1.545110E-10  8.032760E-12 -3.024606E-11 -1.180313E-11 -3.750998E-11 -7.788744E-11  0.000000E+00  0.000000E+00  0.000000E+00  0.000000E+00 -9.118874E-13  0.000000E+00  0.000000E+00  0.000000E+00  0.000000E+00  0.000000E+00 -2.623709E-11  0.000000E+00  0.000000E+00  0.000000E+00  0.000000E+00
  2.88000000000E+00  0.00000000000E+00 -6.38000000000E-01     93.371  2.843517E-12  7.768896E-11  3.646658E-14 -3.996327E-14 -1.570534E-14 -5.086923E-14 -4.209251E-13  0.000000E+00  0.000000E+00  0.000000E+00  0.000000E+00 -1.006304E-10  0.000000E+00  0.000000E+00  0.000000E+00  0.000000E+00  0.000000E+00 -2.162450E-12  0.000000E+00  0.000000E+00  0.000000E+00  0.000000E+00
  2.88000000000E+00  0.00000000000E+00 -6.38000000000E-01     93.367  1.302925E-10  1.568672E-10  7.304469E-12 -3.133358E-11 -1.228783E-11 -3.922475E-11 -7.492538E-11  0.000000E+00  0.000000E+00  0.000000E+00  0.000000E+00 -8.565497E-13  0.000000E+00  0.000000E+00  0.000000E+00  0.000000E+00  0.000000E+00 -2.150377E-11  0.000000E+00  0.000000E+00  0.000000E+00  0.000000E+00
  3.02700000000E+00  0.00000000000E+00 -6.71000000000E-01     91.357  3.021477E-12  7.856608E-11  3.570991E-14 -8.071429E-14 -3.206139E-14 -1.029835E-13 -4.279148E-13  0.000000E+00  0.000000E+00  0.000000E+00  0.000000E+00 -1.025671E-10  0.000000E+00  0.000000E+00  0.000000E+00  0.000000E+00  0.000000E+00 -1.114148E-12  0.000000E+00  0.000000E+00  0.000000E+00  0.000000E+00
  3.02700000000E+00  0.00000000000E+00 -6.71000000000E-01     91.356  1.283140E-10  1.653637E-10  6.452980E-12 -3.305466E-11 -1.300253E-11 -4.156770E-11 -7.318743E-11  0.000000E+00  0.000000E+00  0.000000E+00  0.000000E+00 -7.932863E-13  0.000000E+00  0.000000E+00  0.000000E+00  0.000000E+00  0.000000E+00 -1.507285E-11  0.000000E+00  0.000000E+00  0.000000E+00  0.000000E+00