Title="TOUGHREACT V4.13omp : Thermal Properties: Grain Density = kg/m^3, Therm Cond = W/m/K, Solid Therm Diff = m^2/s, Cp Rock = J/kg/K, Cp Coeff (a + bT + c/T^2 + d/sqrt(T), Cp Mineral = J/mol/K"

Variables= "X(m)"   "Y(m)"   "Z(m)"       "T(C)" "Dens_Grain"    "RkTCond"    "RkTDiff"  "RkHeatCap"    "CpRkCfa"    "CpRkCfb"    "CpRkCfc"    "CpRkCfd"
Zone T= "0.00000000E+00 sec" I=    4490 J=       1 K=       1 F=Point
  1.99900000000E+00  0.00000000000E+00 -1.53400000000E+00   25.4224   2466.00    0.0018  7.45160E-10   985.0000  0.000000E+00  0.000000E+00  0.000000E+00  0.000000E+00
  1.99900000000E+00  0.00000000000E+00 -1.53400000000E+00   25.4225   2466.00    2.0740  8.53846E-07   985.0000  0.000000E+00  0.000000E+00  0.000000E+00  0.000000E+00
  2.03900000000E+00  0.00000000000E+00 -1.56500000000E+00   25.4224   2466.00    0.0018  7.45160E-10   985.0000  0.000000E+00  0.000000E+00  0.000000E+00  0.000000E+00
  2.03900000000E+00  0.00000000000E+00 -1.56500000000E+00   25.4225   2466.00    2.0740  8.53846E-07   985.0000  0.000000E+00  0.000000E+00  0.000000E+00  0.000000E+00
  2.10200000000E+00  0.00000000000E+00 -1.61300000000E+00   25.4224   2466.00    0.0018  7.45160E-10   985.0000  0.000000E+00  0.000000E+00  0.000000E+00  0.000000E+00
  2.10200000000E+00  0.00000000000E+00 -1.61300000000E+00   25.4225   2466.00    2.0740  8.53846E-07   985.0000  0.000000E+00  0.000000E+00  0.000000E+00  0.000000E+00
  2.18200000000E+00  0.00000000000E+00 -1.67400000000E+00   25.4224   2466.00    0.0018  7.45160E-10   985.0000  0.000000E+00  0.000000E+00  0.000000E+00  0.000000E+00
  2.18200000000E+00  0.00000000000E+00 -1.67400000000E+00   25.4225   2466.00    2.0740  8.53846E-07   985.0000  0.000000E+00  0.000000E+00  0.000000E+00  0.000000E+00
  2.26100000000E+00  0.00000000000E+00 -1.73500000000E+00   25.4224   2466.00    0.0018  7.45160E-10   985.0000  0.000000E+00  0.000000E+00  0.000000E+00  0.000000E+00
  2.26100000000E+00  0.00000000000E+00 -1.73500000000E+00   25.4225   2466.00    2.0740  8.53846E-07   985.0000  0.000000E+00  0.000000E+00  0.000000E+00  0.000000E+00
  2.34000000000E+00  0.00000000000E+00 -1.79600000000E+00   25.4224   2466.00    0.0018  7.45160E-10   985.0000  0.000000E+00  0.000000E+00  0.000000E+00  0.000000E+00
  2.34000000000E+00  0.00000000000E+00 -1.79600000000E+00   25.4225   2466.00    2.0740  8.53846E-07   985.0000  0.000000E+00  0.000000E+00  0.000000E+00  0.000000E+00
  2.45900000000E+00  0.00000000000E+00 -1.88700000000E+00   25.4224   2466.00    0.0018  7.45160E-10   985.0000  0.000000E+00  0.000000E+00  0.000000E+00  0.000000E+00
  2.45900000000E+00  0.00000000000E+00 -1.88700000000E+00   25.4225   2466.00    2.0740  8.53846E-07   985.0000  0.000000E+00  0.000000E+00  0.000000E+00  0.000000E+00
  2.61800000000E+00  0.00000000000E+00 -2.00900000000E+00   25.4225   2466.00    0.0018  7.45160E-10   985.0000  0.000000E+00  0.000000E+00  0.000000E+00  0.000000E+00
  2.61800000000E+00  0.00000000000E+00 -2.00900000000E+00   25.4225   2466.00    2.0740  8.53846E-07   985.0000  0.000000E+00  0.000000E+00  0.000000E+00  0.000000E+00
  2.77700000000E+00  0.00000000000E+00 -2.13100000000E+00   25.4225   2466.00    0.0018  7.45160E-10   985.0000  0.000000E+00  0.000000E+00  0.000000E+00  0.000000E+00
  2.77700000000E+00  0.00000000000E+00 -2.13100000000E+00   25.4225   2466.00    2.0740  8.53846E-07   985.0000  0.000000E+00  0.000000E+00  0.000000E+00  0.000000E+00
  2.97500000000E+00  0.00000000000E+00 -2.28300000000E+00   25.4225   2466.00    0.0018  7.45160E-10   985.0000  0.000000E+00  0.000000E+00  0.000000E+00  0.000000E+00
  2.97500000000E+00  0.00000000000E+00 -2.28300000000E+00   25.4225   2466.00    2.0740  8.53846E-07   985.0000  0.000000E+00  0.000000E+00  0.000000E+00  0.000000E+00
  3.21300000000E+00  0.00000000000E+00 -2.46500000000E+00   25.4225   2466.00    0.0018  7.45160E-10   985.0000  0.000000E+00  0.000000E+00  0.000000E+00  0.000000E+00
  3.21300000000E+00  0.00000000000E+00 -2.46500000000E+00   25.4225   2466.00    2.0740  8.53846E-07   985.0000  0.000000E+00  0.000000E+00  0.000000E+00  0.000000E+00
  3.76800000000E+00  0.00000000000E+00 -2.89200000000E+00   25.4225   2466.00    0.0018  7.45160E-10   985.0000  0.000000E+00  0.000000E+00  0.000000E+00  0.000000E+00
  3.76800000000E+00  0.00000000000E+00 -2.89200000000E+00   25.4225   2466.00    2.0740  8.53846E-07   985.0000  0.000000E+00  0.000000E+00  0.000000E+00  0.000000E+00
  4.16500000000E+00  0.00000000000E+00 -3.19600000000E+00   25.4225   2466.00    0.0018  7.45160E-10   985.0000  0.000000E+00  0.000000E+00  0.000000E+00  0.000000E+00
  4.16500000000E+00  0.00000000000E+00 -3.19600000000E+00   25.4225   2466.00    2.0740  8.53846E-07   985.0000  0.000000E+00  0.000000E+00  0.000000E+00  0.000000E+00
  4.64100000000E+00  0.00000000000E+00 -3.56100000000E+00   25.4225   2466.00    0.0018  7.45160E-10   985.0000  0.000000E+00  0.000000E+00  0.000000E+00  0.000000E+00
  4.64100000000E+00  0.00000000000E+00 -3.56100000000E+00   25.4225   2466.00    2.0740  8.53846E-07   985.0000  0.000000E+00  0.000000E+00  0.000000E+00  0.000000E+00
  2.28400000000E+00  0.00000000000E+00 -1.06500000000E+00   25.3635   2466.00    0.0018  7.45160E-10   985.0000  0.000000E+00  0.000000E+00  0.000000E+00  0.000000E+00
  2.28400000000E+00  0.00000000000E+00 -1.06500000000E+00   25.3635   2466.00    2.0740  8.53846E-07   985.0000  0.000000E+00  0.000000E+00  0.000000E+00  0.000000E+00
  2.32900000000E+00  0.00000000000E+00 -1.08600000000E+00   25.3642   2466.00    0.0018  7.45160E-10   985.0000  0.000000E+00  0.000000E+00  0.000000E+00  0.000000E+00
  2.32900000000E+00  0.00000000000E+00 -1.08600000000E+00   25.3642   2466.00    2.0740  8.53846E-07   985.0000  0.000000E+00  0.000000E+00  0.000000E+00  0.000000E+00
  2.40200000000E+00  0.00000000000E+00 -1.12000000000E+00   25.3642   2466.00    0.0018  7.45160E-10   985.0000  0.000000E+00  0.000000E+00  0.000000E+00  0.000000E+00
  2.40200000000E+00  0.00000000000E+00 -1.12000000000E+00   25.3642   2466.00    2.0740  8.53846E-07   985.0000  0.000000E+00  0.000000E+00  0.000000E+00  0.000000E+00
  2.49200000000E+00  0.00000000000E+00 -1.16200000000E+00   25.3642   2466.00    0.0018  7.45160E-10   985.0000  0.000000E+00  0.000000E+00  0.000000E+00  0.000000E+00
  2.49200000000E+00  0.00000000000E+00 -1.16200000000E+00   25.3642   2466.00    2.0740  8.53846E-07   985.0000  0.000000E+00  0.000000E+00  0.000000E+00  0.000000E+00
  2.58300000000E+00  0.00000000000E+00 -1.20400000000E+00   25.3643   2466.00    0.0018  7.45160E-10   985.0000  0.000000E+00  0.000000E+00  0.000000E+00  0.000000E+00
  2.58300000000E+00  0.00000000000E+00 -1.20400000000E+00   25.3643   2466.00    2.0740  8.53846E-07   985.0000  0.000000E+00  0.000000E+00  0.000000E+00  0.000000E+00
  2.67400000000E+00  0.00000000000E+00 -1.24700000000E+00   25.4224   2466.00    0.0018  7.45160E-10   985.0000  0.000000E+00  0.000000E+00  0.000000E+00  0.000000E+00
  2.67400000000E+00  0.00000000000E+00 -1.24700000000E+00   25.4224   2466.00    2.0740  8.53846E-07   985.0000  0.000000E+00  0.000000E+00  0.000000E+00  0.000000E+00
  2.81000000000E+00  0.00000000000E+00 -1.31000000000E+00   25.4224   2466.00    0.0018  7.45160E-10   985.0000  0.000000E+00  0.000000E+00  0.000000E+00  0.000000E+00
  2.81000000000E+00  0.00000000000E+00 -1.31000000000E+00   25.4225   2466.00    2.0740  8.53846E-07   985.0000  0.000000E+00  0.000000E+00  0.000000E+00  0.000000E+00
  2.99100000000E+00  0.00000000000E+00 -1.39500000000E+00   25.4224   2466.00    0.0018  7.45160E-10   985.0000  0.000000E+00  0.000000E+00  0.000000E+00  0.000000E+00
  2.99100000000E+00  0.00000000000E+00 -1.39500000000E+00   25.4225   2466.00    2.0740  8.53846E-07   985.0000  0.000000E+00  0.000000E+00  0.000000E+00  0.000000E+00
  3.17200000000E+00  0.00000000000E+00 -1.47900000000E+00   25.4224   2466.00    0.0018  7.45160E-10   985.0000  0.000000E+00  0.000000E+00  0.000000E+00  0.000000E+00
  3.17200000000E+00  0.00000000000E+00 -1.47900000000E+00   25.4225   2466.00    2.0740  8.53846E-07   985.0000  0.000000E+00  0.000000E+00  0.000000E+00  0.000000E+00
  2.40300000000E+00  0.00000000000E+00 -7.58000000000E-01   25.3635   2466.00    0.0018  7.45160E-10   985.0000  0.000000E+00  0.000000E+00  0.000000E+00  0.000000E+00
  2.40300000000E+00  0.00000000000E+00 -7.58000000000E-01   25.3634   2466.00    2.0740  8.53846E-07   985.0000  0.000000E+00  0.000000E+00  0.000000E+00  0.000000E+00
  2.45100000000E+00  0.00000000000E+00 -7.73000000000E-01   25.3642   2466.00    0.0018  7.45160E-10   985.0000  0.000000E+00  0.000000E+00  0.000000E+00  0.000000E+00
  2.45100000000E+00  0.00000000000E+00 -7.73000000000E-01   25.3642   2466.00    2.0740  8.53846E-07   985.0000  0.000000E+00  0.000000E+00  0.000000E+00  0.000000E+00
  2.52700000000E+00  0.00000000000E+00 -7.97000000000E-01   25.3642   2466.00    0.0018  7.45160E-10   985.0000  0.000000E+00  0.000000E+00  0.000000E+00  0.000000E+00
  2.52700000000E+00  0.00000000000E+00 -7.97000000000E-01   25.3642   2466.00    2.0740  8.53846E-07   985.0000  0.000000E+00  0.000000E+00  0.000000E+00  0.000000E+00
  2.62300000000E+00  0.00000000000E+00 -8.27000000000E-01   25.3642   2466.00    0.0018  7.45160E-10   985.0000  0.000000E+00  0.000000E+00  0.000000E+00  0.000000E+00
  2.62300000000E+00  0.00000000000E+00 -8.27000000000E-01   25.3642   2466.00    2.0740  8.53846E-07   985.0000  0.000000E+00  0.000000E+00  0.000000E+00  0.000000E+00
  2.71800000000E+00  0.00000000000E+00 -8.57000000000E-01   25.3642   2466.00    0.0018  7.45160E-10   985.0000  0.000000E+00  0.000000E+00  0.000000E+00  0.000000E+00
  2.71800000000E+00  0.00000000000E+00 -8.57000000000E-01   25.3642   2466.00    2.0740  8.53846E-07   985.0000  0.000000E+00  0.000000E+00  0.000000E+00  0.000000E+00
  2.81300000000E+00  0.00000000000E+00 -8.87000000000E-01   25.3642   2466.00    0.0018  7.45160E-10   985.0000  0.000000E+00  0.000000E+00  0.000000E+00  0.000000E+00
  2.81300000000E+00  0.00000000000E+00 -8.87000000000E-01   25.3643   2466.00    2.0740  8.53846E-07   985.0000  0.000000E+00  0.000000E+00  0.000000E+00  0.000000E+00
  2.95700000000E+00  0.00000000000E+00 -9.32000000000E-01   25.3642   2466.00    0.0018  7.45160E-10   985.0000  0.000000E+00  0.000000E+00  0.000000E+00  0.000000E+00
  2.95700000000E+00  0.00000000000E+00 -9.32000000000E-01   25.3643   2466.00    2.0740  8.53846E-07   985.0000  0.000000E+00  0.000000E+00  0.000000E+00  0.000000E+00
  3.14700000000E+00  0.00000000000E+00 -9.92000000000E-01   25.3643   2466.00    0.0018  7.45160E-10   985.0000  0.000000E+00  0.000000E+00  0.000000E+00  0.000000E+00
  3.14700000000E+00  0.00000000000E+00 -9.92000000000E-01   25.3643   2466.00    2.0740  8.53846E-07   985.0000  0.000000E+00  0.000000E+00  0.000000E+00  0.000000E+00
  3.33800000000E+00  0.00000000000E+00 -1.05200000000E+00   25.3643   2466.00    0.0018  7.45160E-10   985.0000  0.000000E+00  0.000000E+00  0.000000E+00  0.000000E+00
  3.33800000000E+00  0.00000000000E+00 -1.05200000000E+00   25.3643   2466.00    2.0740  8.53846E-07   985.0000  0.000000E+00  0.000000E+00  0.000000E+00  0.000000E+00
  2.46000000000E+00  0.00000000000E+00 -5.45000000000E-01   25.3635   2466.00    0.0018  7.45160E-10   985.0000  0.000000E+00  0.000000E+00  0.000000E+00  0.000000E+00
  2.46000000000E+00  0.00000000000E+00 -5.45000000000E-01   25.3634   2466.00    2.0740  8.53846E-07   985.0000  0.000000E+00  0.000000E+00  0.000000E+00  0.000000E+00
  2.50900000000E+00  0.00000000000E+00 -5.56000000000E-01   25.3642   2466.00    0.0018  7.45160E-10   985.0000  0.000000E+00  0.000000E+00  0.000000E+00  0.000000E+00
  2.50900000000E+00  0.00000000000E+00 -5.56000000000E-01   25.3642   2466.00    2.0740  8.53846E-07   985.0000  0.000000E+00  0.000000E+00  0.000000E+00  0.000000E+00
  2.58700000000E+00  0.00000000000E+00 -5.74000000000E-01   25.3642   2466.00    0.0018  7.45160E-10   985.0000  0.000000E+00  0.000000E+00  0.000000E+00  0.000000E+00
  2.58700000000E+00  0.00000000000E+00 -5.74000000000E-01   25.3642   2466.00    2.0740  8.53846E-07   985.0000  0.000000E+00  0.000000E+00  0.000000E+00  0.000000E+00
  2.68500000000E+00  0.00000000000E+00 -5.95000000000E-01   25.3642   2466.00    0.0018  7.45160E-10   985.0000  0.000000E+00  0.000000E+00  0.000000E+00  0.000000E+00
  2.68500000000E+00  0.00000000000E+00 -5.95000000000E-01   25.3642   2466.00    2.0740  8.53846E-07   985.0000  0.000000E+00  0.000000E+00  0.000000E+00  0.000000E+00
  2.78200000000E+00  0.00000000000E+00 -6.17000000000E-01   25.3642   2466.00    0.0018  7.45160E-10   985.0000  0.000000E+00  0.000000E+00  0.000000E+00  0.000000E+00
  2.78200000000E+00  0.00000000000E+00 -6.17000000000E-01   25.3642   2466.00    2.0740  8.53846E-07   985.0000  0.000000E+00  0.000000E+00  0.000000E+00  0.000000E+00
  2.88000000000E+00  0.00000000000E+00 -6.38000000000E-01   25.3642   2466.00    0.0018  7.45160E-10   985.0000  0.000000E+00  0.000000E+00  0.000000E+00  0.000000E+00
  2.88000000000E+00  0.00000000000E+00 -6.38000000000E-01   25.3642   2466.00    2.0740  8.53846E-07   985.0000  0.000000E+00  0.000000E+00  0.000000E+00  0.000000E+00
  3.02700000000E+00  0.00000000000E+00 -6.71000000000E-01   25.3642   2466.00    0.0018  7.45160E-10   985.0000  0.000000E+00  0.000000E+00  0.000000E+00  0.000000E+00
  3.02700000000E+00  0.00000000000E+00 -6.71000000000E-01   25.3642   2466.00    2.0740  8.53846E-07   985.0000  0.000000E+00  0.000000E+00  0.000000E+00  0.000000E+00
  3.22200000000E+00  0.00000000000E+00 -7.14000000000E-01   25.3642   2466.00    0.0018  7.45160E-10   985.0000  0.000000E+00  0.000000E+00  0.000000E+00  0.000000E+00
  3.22200000000E+00  0.00000000000E+00 -7.14000000000E-01   25.3642   2466.00    2.0740  8.53846E-07   985.0000  0.000000E+00  0.000000E+00  0.000000E+00  0.000000E+00
  3.41700000000E+00  0.00000000000E+00 -7.58000000000E-01   25.3642   2466.00    0.0018  7.45160E-10   985.0000  0.000000E+00  0.000000E+00  0.000000E+00  0.000000E+00
  3.41700000000E+00  0.00000000000E+00 -7.58000000000E-01   25.3642   2466.00    2.0740  8.53846E-07   985.0000  0.000000E+00  0.000000E+00  0.000000E+00  0.000000E+00
  2.49800000000E+00  0.00000000000E+00 -3.29000000000E-01   25.3635   2466.00    0.0018  7.45160E-10   985.0000  0.000000E+00  0.000000E+00  0.000000E+00  0.000000E+00
  2.49800000000E+00  0.00000000000E+00 -3.29000000000E-01   25.3634   2466.00    2.0740  8.53846E-07   985.0000  0.000000E+00  0.000000E+00  0.000000E+00  0.000000E+00
  2.54800000000E+00  0.00000000000E+00 -3.35000000000E-01   25.3642   2466.00    0.0018  7.45160E-10   985.0000  0.000000E+00  0.000000E+00  0.000000E+00  0.000000E+00
  2.54800000000E+00  0.00000000000E+00 -3.35000000000E-01   25.3642   2466.00    2.0740  8.53846E-07   985.0000  0.000000E+00  0.000000E+00  0.000000E+00  0.000000E+00
  2.62700000000E+00  0.00000000000E+00 -3.46000000000E-01   25.3642   2466.00    0.0018  7.45160E-10   985.0000  0.000000E+00  0.000000E+00  0.000000E+00  0.000000E+00
  2.62700000000E+00  0.00000000000E+00 -3.46000000000E-01   25.3642   2466.00    2.0740  8.53846E-07   985.0000  0.000000E+00  0.000000E+00  0.000000E+00  0.000000E+00
  2.72600000000E+00  0.00000000000E+00 -3.59000000000E-01   25.3642   2466.00    0.0018  7.45160E-10   985.0000  0.000000E+00  0.000000E+00  0.000000E+00  0.000000E+00
  2.72600000000E+00  0.00000000000E+00 -3.59000000000E-01   25.3642   2466.00    2.0740  8.53846E-07   985.0000  0.000000E+00  0.000000E+00  0.000000E+00  0.000000E+00
  2.82600000000E+00  0.00000000000E+00 -3.72000000000E-01   25.3642   2466.00    0.0018  7.45160E-10   985.0000  0.000000E+00  0.000000E+00  0.000000E+00  0.000000E+00
  2.82600000000E+00  0.00000000000E+00 -3.72000000000E-01   25.3642   2466.00    2.0740  8.53846E-07   985.0000  0.000000E+00  0.000000E+00  0.000000E+00  0.000000E+00
  2.92500000000E+00  0.00000000000E+00 -3.85000000000E-01   25.3642   2466.00    0.0018  7.45160E-10   985.0000  0.000000E+00  0.000000E+00  0.000000E+00  0.000000E+00
  2.92500000000E+00  0.00000000000E+00 -3.85000000000E-01   25.3642   2466.00    2.0740  8.53846E-07   985.0000  0.000000E+00  0.000000E+00  0.000000E+00  0.000000E+00
  3.07300000000E+00  0.00000000000E+00 -4.05000000000E-01   25.3642   2466.00    0.0018  7.45160E-10   985.0000  0.000000E+00  0.000000E+00  0.000000E+00  0.000000E+00
  3.07300000000E+00  0.00000000000E+00 -4.05000000000E-01   25.3642   2466.00    2.0740  8.53846E-07   985.0000  0.000000E+00  0.000000E+00  0.000000E+00  0.000000E+00
  3.27200000000E+00  0.00000000000E+00 -4.31000000000E-01   25.3642   2466.00    0.0018  7.45160E-10   985.0000  0.000000E+00  0.000000E+00  0.000000E+00  0.000000E+00
  3.27200000000E+00  0.00000000000E+00 -4.31000000000E-01   25.3642   2466.00    2.0740  8.53846E-07   985.0000  0.000000E+00  0.000000E+00  0.000000E+00  0.000000E+00
  3.47000000000E+00  0.00000000000E+00 -4.57000000000E-01   25.3642   2466.00    0.0018  7.45160E-10   985.0000  0.000000E+00  0.000000E+00  0.000000E+00  0.000000E+00
  3.47000000000E+00  0.00000000000E+00 -4.57000000000E-01   25.3642   2466.00    2.0740  8.53846E-07   985.0000  0.000000E+00  0.000000E+00  0.000000E+00  0.000000E+00
  2.51800000000E+00  0.00000000000E+00 -1.10000000000E-01   25.3635   2466.00    0.0018  7.45160E-10   985.0000  0.000000E+00  0.000000E+00  0.000000E+00  0.000000E+00
  2.51800000000E+00  0.00000000000E+00 -1.10000000000E-01   25.3634   2466.00    2.0740  8.53846E-07   985.0000  0.000000E+00  0.000000E+00  0.000000E+00  0.000000E+00
  2.56800000000E+00  0.00000000000E+00 -1.12000000000E-01   25.3642   2466.00    0.0018  7.45160E-10   985.0000  0.000000E+00  0.000000E+00  0.000000E+00  0.000000E+00
  2.56800000000E+00  0.00000000000E+00 -1.12000000000E-01   25.3642   2466.00    2.0740  8.53846E-07   985.0000  0.000000E+00  0.000000E+00  0.000000E+00  0.000000E+00
  2.64700000000E+00  0.00000000000E+00 -1.16000000000E-01   25.3642   2466.00    0.0018  7.45160E-10   985.0000  0.000000E+00  0.000000E+00  0.000000E+00  0.000000E+00
  2.64700000000E+00  0.00000000000E+00 -1.16000000000E-01   25.3642   2466.00    2.0740  8.53846E-07   985.0000  0.000000E+00  0.000000E+00  0.000000E+00  0.000000E+00
  2.74700000000E+00  0.00000000000E+00 -1.20000000000E-01   25.3642   2466.00    0.0018  7.45160E-10   985.0000  0.000000E+00  0.000000E+00  0.000000E+00  0.000000E+00
  2.74700000000E+00  0.00000000000E+00 -1.20000000000E-01   25.3642   2466.00    2.0740  8.53846E-07   985.0000  0.000000E+00  0.000000E+00  0.000000E+00  0.000000E+00
  2.84700000000E+00  0.00000000000E+00 -1.24000000000E-01   25.3642   2466.00    0.0018  7.45160E-10   985.0000  0.000000E+00  0.000000E+00  0.000000E+00  0.000000E+00
  2.84700000000E+00  0.00000000000E+00 -1.24000000000E-01   25.3642   2466.00    2.0740  8.53846E-07   985.0000  0.000000E+00  0.000000E+00  0.000000E+00  0.000000E+00
  2.94700000000E+00  0.00000000000E+00 -1.29000000000E-01   25.3642   2466.00    0.0018  7.45160E-10   985.0000  0.000000E+00  0.000000E+00  0.000000E+00  0.000000E+00
  2.94700000000E+00  0.00000000000E+00 -1.29000000000E-01   25.3642   2466.00    2.0740  8.53846E-07   985.0000  0.000000E+00  0.000000E+00  0.000000E+00  0.000000E+00
  3.09700000000E+00  0.00000000000E+00 -1.35000000000E-01   25.3642   2466.00    0.0018  7.45160E-10   985.0000  0.000000E+00  0.000000E+00  0.000000E+00  0.000000E+00
  3.09700000000E+00  0.00000000000E+00 -1.35000000000E-01   25.3642   2466.00    2.0740  8.53846E-07   985.0000  0.000000E+00  0.000000E+00  0.000000E+00  0.000000E+00
  3.29700000000E+00  0.00000000000E+00 -1.44000000000E-01   25.3642   2466.00    0.0018  7.45160E-10   985.0000  0.000000E+00  0.000000E+00  0.000000E+00  0.000000E+00
  3.29700000000E+00  0.00000000000E+00 -1.44000000000E-01   25.3642   2466.00    2.0740  8.53846E-07   985.0000  0.000000E+00  0.000000E+00  0.000000E+00  0.000000E+00
  3.49700000000E+00  0.00000000000E+00 -1.53000000000E-01   25.3642   2466.00    0.0018  7.45160E-10   985.0000  0.000000E+00  0.000000E+00  0.000000E+00  0.000000E+00
  3.49700000000E+00  0.00000000000E+00 -1.53000000000E-01   25.3642   2466.00    2.0740  8.53846E-07   985.0000  0.000000E+00  0.000000E+00  0.000000E+00  0.000000E+00
  2.51800000000E+00  0.00000000000E+00  1.10000000000E-01   25.3635   2466.00    0.0018  7.45160E-10   985.0000  0.000000E+00  0.000000E+00  0.000000E+00  0.000000E+00
  2.51800000000E+00  0.00000000000E+00  1.10000000000E-01   25.3634   2466.00    2.0740  8.53846E-07   985.0000  0.000000E+00  0.000000E+00  0.000000E+00  0.000000E+00
  2.56800000000E+00  0.00000000000E+00  1.12000000000E-01   25.3642   2466.00    0.0018  7.45160E-10   985.0000  0.000000E+00  0.000000E+00  0.000000E+00  0.000000E+00
  2.56800000000E+00  0.00000000000E+00  1.12000000000E-01   25.3642   2466.00    2.0740  8.53846E-07   985.0000  0.000000E+00  0.000000E+00  0.000000E+00  0.000000E+00
  2.64700000000E+00  0.00000000000E+00  1.16000000000E-01   25.3642   2466.00    0.0018  7.45160E-10   985.0000  0.000000E+00  0.000000E+00  0.000000E+00  0.000000E+00
  2.64700000000E+00  0.00000000000E+00  1.16000000000E-01   25.3642   2466.00    2.0740  8.53846E-07   985.0000  0.000000E+00  0.000000E+00  0.000000E+00  0.000000E+00
  2.74700000000E+00  0.00000000000E+00  1.20000000000E-01   25.3642   2466.00    0.0018  7.45160E-10   985.0000  0.000000E+00  0.000000E+00  0.000000E+00  0.000000E+00
  2.74700000000E+00  0.00000000000E+00  1.20000000000E-01   25.3642   2466.00    2.0740  8.53846E-07   985.0000  0.000000E+00  0.000000E+00  0.000000E+00  0.000000E+00
  2.84700000000E+00  0.00000000000E+00  1.24000000000E-01   25.3642   2466.00    0.0018  7.45160E-10   985.0000  0.000000E+00  0.000000E+00  0.000000E+00  0.000000E+00
  2.84700000000E+00  0.00000000000E+00  1.24000000000E-01   25.3642   2466.00    2.0740  8.53846E-07   985.0000  0.000000E+00  0.000000E+00  0.000000E+00  0.000000E+00
  2.94700000000E+00  0.00000000000E+00  1.29000000000E-01   25.3642   2466.00    0.0018  7.45160E-10   985.0000  0.000000E+00  0.000000E+00  0.000000E+00  0.000000E+00
  2.94700000000E+00  0.00000000000E+00  1.29000000000E-01   25.3642   2466.00    2.0740  8.53846E-07   985.0000  0.000000E+00  0.000000E+00  0.000000E+00  0.000000E+00
  3.09700000000E+00  0.00000000000E+00  1.35000000000E-01   25.3642   2466.00    0.0018  7.45160E-10   985.0000  0.000000E+00  0.000000E+00  0.000000E+00  0.000000E+00
  3.09700000000E+00  0.00000000000E+00  1.35000000000E-01   25.3642   2466.00    2.0740  8.53846E-07   985.0000  0.000000E+00  0.000000E+00  0.000000E+00  0.000000E+00
  3.29700000000E+00  0.00000000000E+00  1.44000000000E-01   25.3642   2466.00    0.0018  7.45160E-10   985.0000  0.000000E+00  0.000000E+00  0.000000E+00  0.000000E+00
  3.29700000000E+00  0.00000000000E+00  1.44000000000E-01   25.3642   2466.00    2.0740  8.53846E-07   985.0000  0.000000E+00  0.000000E+00  0.000000E+00  0.000000E+00
  3.49700000000E+00  0.00000000000E+00  1.53000000000E-01   25.3642   2466.00    0.0018  7.45160E-10   985.0000  0.000000E+00  0.000000E+00  0.000000E+00  0.000000E+00
  3.49700000000E+00  0.00000000000E+00  1.53000000000E-01   25.3642   2466.00    2.0740  8.53846E-07   985.0000  0.000000E+00  0.000000E+00  0.000000E+00  0.000000E+00
  2.49800000000E+00  0.00000000000E+00  3.29000000000E-01   25.3635   2466.00    0.0018  7.45160E-10   985.0000  0.000000E+00  0.000000E+00  0.000000E+00  0.000000E+00
  2.49800000000E+00  0.00000000000E+00  3.29000000000E-01   25.3634   2466.00    2.0740  8.53846E-07   985.0000  0.000000E+00  0.000000E+00  0.000000E+00  0.000000E+00
  2.54800000000E+00  0.00000000000E+00  3.35000000000E-01   25.3642   2466.00    0.0018  7.45160E-10   985.0000  0.000000E+00  0.000000E+00  0.000000E+00  0.000000E+00
  2.54800000000E+00  0.00000000000E+00  3.35000000000E-01   25.3642   2466.00    2.0740  8.53846E-07   985.0000  0.000000E+00  0.000000E+00  0.000000E+00  0.000000E+00
  2.62700000000E+00  0.00000000000E+00  3.46000000000E-01   25.3642   2466.00    0.0018  7.45160E-10   985.0000  0.000000E+00  0.000000E+00  0.000000E+00  0.000000E+00
  2.62700000000E+00  0.00000000000E+00  3.46000000000E-01   25.3642   2466.00    2.0740  8.53846E-07   985.0000  0.000000E+00  0.000000E+00  0.000000E+00  0.000000E+00
  2.72600000000E+00  0.00000000000E+00  3.59000000000E-01   25.3642   2466.00    0.0018  7.45160E-10   985.0000  0.000000E+00  0.000000E+00  0.000000E+00  0.000000E+00
  2.72600000000E+00  0.00000000000E+00  3.59000000000E-01   25.3642   2466.00    2.0740  8.53846E-07   985.0000  0.000000E+00  0.000000E+00  0.000000E+00  0.000000E+00
  2.82600000000E+00  0.00000000000E+00  3.72000000000E-01   25.3642   2466.00    0.0018  7.45160E-10   985.0000  0.000000E+00  0.000000E+00  0.000000E+00  0.000000E+00
  2.82600000000E+00  0.00000000000E+00  3.72000000000E-01   25.3642   2466.00    2.0740  8.53846E-07   985.0000  0.000000E+00  0.000000E+00  0.000000E+00  0.000000E+00
  2.92500000000E+00  0.00000000000E+00  3.85000000000E-01   25.3642   2466.00    0.0018  7.45160E-10   985.0000  0.000000E+00  0.000000E+00  0.000000E+00  0.000000E+00
  2.92500000000E+00  0.00000000000E+00  3.85000000000E-01   25.3642   2466.00    2.0740  8.53846E-07   985.0000  0.000000E+00  0.000000E+00  0.000000E+00  0.000000E+00
  3.07300000000E+00  0.00000000000E+00  4.05000000000E-01   25.3642   2466.00    0.0018  7.45160E-10   985.0000  0.000000E+00  0.000000E+00  0.000000E+00  0.000000E+00
  3.07300000000E+00  0.00000000000E+00  4.05000000000E-01   25.3642   2466.00    2.0740  8.53846E-07   985.0000  0.000000E+00  0.000000E+00  0.000000E+00  0.000000E+00
  3.27200000000E+00  0.00000000000E+00  4.31000000000E-01   25.3642   2466.00    0.0018  7.45160E-10   985.0000  0.000000E+00  0.000000E+00  0.000000E+00  0.000000E+00
  3.27200000000E+00  0.00000000000E+00  4.31000000000E-01   25.3642   2466.00    2.0740  8.53846E-07   985.0000  0.000000E+00  0.000000E+00  0.000000E+00  0.000000E+00
  3.47000000000E+00  0.00000000000E+00  4.57000000000E-01   25.3642   2466.00    0.0018  7.45160E-10   985.0000  0.000000E+00  0.000000E+00  0.000000E+00  0.000000E+00
  3.47000000000E+00  0.00000000000E+00  4.57000000000E-01   25.3642   2466.00    2.0740  8.53846E-07   985.0000  0.000000E+00  0.000000E+00  0.000000E+00  0.000000E+00
  2.43400000000E+00  0.00000000000E+00  6.52000000000E-01   25.3635   2466.00    0.0018  7.45160E-10   985.0000  0.000000E+00  0.000000E+00  0.000000E+00  0.000000E+00
  2.43400000000E+00  0.00000000000E+00  6.52000000000E-01   25.3634   2466.00    2.0740  8.53846E-07   985.0000  0.000000E+00  0.000000E+00  0.000000E+00  0.000000E+00
  2.48200000000E+00  0.00000000000E+00  6.65000000000E-01   25.3642   2466.00    0.0018  7.45160E-10   985.0000  0.000000E+00  0.000000E+00  0.000000E+00  0.000000E+00
  2.48200000000E+00  0.00000000000E+00  6.65000000000E-01   25.3642   2466.00    2.0740  8.53846E-07   985.0000  0.000000E+00  0.000000E+00  0.000000E+00  0.000000E+00
  2.56000000000E+00  0.00000000000E+00  6.86000000000E-01   25.3642   2466.00    0.0018  7.45160E-10   985.0000  0.000000E+00  0.000000E+00  0.000000E+00  0.000000E+00
  2.56000000000E+00  0.00000000000E+00  6.86000000000E-01   25.3642   2466.00    2.0740  8.53846E-07   985.0000  0.000000E+00  0.000000E+00  0.000000E+00  0.000000E+00
  2.65600000000E+00  0.00000000000E+00  7.12000000000E-01   25.3642   2466.00    0.0018  7.45160E-10   985.0000  0.000000E+00  0.000000E+00  0.000000E+00  0.000000E+00
  2.65600000000E+00  0.00000000000E+00  7.12000000000E-01   25.3642   2466.00    2.0740  8.53846E-07   985.0000  0.000000E+00  0.000000E+00  0.000000E+00  0.000000E+00
  2.75300000000E+00  0.00000000000E+00  7.38000000000E-01   25.3642   2466.00    0.0018  7.45160E-10   985.0000  0.000000E+00  0.000000E+00  0.000000E+00  0.000000E+00
  2.75300000000E+00  0.00000000000E+00  7.38000000000E-01   25.3642   2466.00    2.0740  8.53846E-07   985.0000  0.000000E+00  0.000000E+00  0.000000E+00  0.000000E+00
  2.84900000000E+00  0.00000000000E+00  7.64000000000E-01   25.3642   2466.00    0.0018  7.45160E-10   985.0000  0.000000E+00  0.000000E+00  0.000000E+00  0.000000E+00
  2.84900000000E+00  0.00000000000E+00  7.64000000000E-01   25.3642   2466.00    2.0740  8.53846E-07   985.0000  0.000000E+00  0.000000E+00  0.000000E+00  0.000000E+00
  2.99400000000E+00  0.00000000000E+00  8.02000000000E-01   25.3642   2466.00    0.0018  7.45160E-10   985.0000  0.000000E+00  0.000000E+00  0.000000E+00  0.000000E+00
  2.99400000000E+00  0.00000000000E+00  8.02000000000E-01   25.3642   2466.00    2.0740  8.53846E-07   985.0000  0.000000E+00  0.000000E+00  0.000000E+00  0.000000E+00
  3.18800000000E+00  0.00000000000E+00  8.54000000000E-01   25.3642   2466.00    0.0018  7.45160E-10   985.0000  0.000000E+00  0.000000E+00  0.000000E+00  0.000000E+00
  3.18800000000E+00  0.00000000000E+00  8.54000000000E-01   25.3642   2466.00    2.0740  8.53846E-07   985.0000  0.000000E+00  0.000000E+00  0.000000E+00  0.000000E+00
  3.38100000000E+00  0.00000000000E+00  9.06000000000E-01   25.3642   2466.00    0.0018  7.45160E-10   985.0000  0.000000E+00  0.000000E+00  0.000000E+00  0.000000E+00
  3.38100000000E+00  0.00000000000E+00  9.06000000000E-01   25.3642   2466.00    2.0740  8.53846E-07   985.0000  0.000000E+00  0.000000E+00  0.000000E+00  0.000000E+00
  2.28400000000E+00  0.00000000000E+00  1.06500000000E+00   25.3635   2466.00    0.0018  7.45160E-10   985.0000  0.000000E+00  0.000000E+00  0.000000E+00  0.000000E+00
  2.28400000000E+00  0.00000000000E+00  1.06500000000E+00   25.3634   2466.00    2.0740  8.53846E-07   985.0000  0.000000E+00  0.000000E+00  0.000000E+00  0.000000E+00
  2.32900000000E+00  0.00000000000E+00  1.08600000000E+00   25.3642   2466.00    0.0018  7.45160E-10   985.0000  0.000000E+00  0.000000E+00  0.000000E+00  0.000000E+00
  2.32900000000E+00  0.00000000000E+00  1.08600000000E+00   25.3642   2466.00    2.0740  8.53846E-07   985.0000  0.000000E+00  0.000000E+00  0.000000E+00  0.000000E+00