Title="TOUGHREACT V4.13omp : Gas Species Concentrations: Mole fraction"
Variables= "X(m)"   "Y(m)"   "Z(m)"     "P(bar)"       "T(C)"     "SatGas"    "FugCoef"       "Conc"       "co2(g)"
Zone T= "0.00000000E+00 sec" I=    1120 J=       1 K=       1 F=Point
  5.00000000000E-01  0.00000000000E+00 -1.00000000000E+00  1.99973E+02   75.000  0.0000E+00  5.3545E-01  2.4178E-11  4.9936E-05
  5.00000000000E-01  0.00000000000E+00 -3.00000000000E+00  1.99997E+02   75.000  0.0000E+00  5.3542E-01  2.4178E-11  4.9930E-05
  5.00000000000E-01  0.00000000000E+00 -5.00000000000E+00  2.00000E+02   75.000  0.0000E+00  5.3542E-01  2.4178E-11  4.9929E-05
  5.00000000000E-01  0.00000000000E+00 -7.00000000000E+00  2.00000E+02   75.000  0.0000E+00  5.3542E-01  2.4178E-11  4.9929E-05
  5.00000000000E-01  0.00000000000E+00 -9.00000000000E+00  2.00000E+02   75.000  0.0000E+00  5.3542E-01  2.4178E-11  4.9929E-05
  5.00000000000E-01  0.00000000000E+00 -1.10000000000E+01  2.00000E+02   75.000  0.0000E+00  5.3542E-01  2.4178E-11  4.9929E-05
  5.00000000000E-01  0.00000000000E+00 -1.30000000000E+01  2.00000E+02   75.000  0.0000E+00  5.3542E-01  2.4178E-11  4.9929E-05
  5.00000000000E-01  0.00000000000E+00 -1.50000000000E+01  2.00000E+02   75.000  0.0000E+00  5.3542E-01  2.4178E-11  4.9929E-05
  5.00000000000E-01  0.00000000000E+00 -1.70000000000E+01  2.00000E+02   75.000  0.0000E+00  5.3542E-01  2.4178E-11  4.9929E-05
  5.00000000000E-01  0.00000000000E+00 -1.90000000000E+01  2.00000E+02   75.000  0.0000E+00  5.3542E-01  2.4178E-11  4.9929E-05
  5.00000000000E-01  0.00000000000E+00 -2.10000000000E+01  2.00000E+02   75.000  0.0000E+00  5.3542E-01  2.4178E-11  4.9929E-05
  5.00000000000E-01  0.00000000000E+00 -2.30000000000E+01  2.00000E+02   75.000  0.0000E+00  5.3542E-01  2.4178E-11  4.9929E-05
  5.00000000000E-01  0.00000000000E+00 -2.50000000000E+01  2.00000E+02   75.000  0.0000E+00  5.3542E-01  2.4178E-11  4.9929E-05
  5.00000000000E-01  0.00000000000E+00 -2.70000000000E+01  2.00000E+02   75.000  0.0000E+00  5.3542E-01  2.4178E-11  4.9929E-05
  5.00000000000E-01  0.00000000000E+00 -2.90000000000E+01  2.00002E+02   75.000  0.0000E+00  5.3542E-01  2.4178E-11  4.9928E-05
  5.00000000000E-01  0.00000000000E+00 -3.10000000000E+01  2.00037E+02   75.000  0.0000E+00  5.3537E-01  1.5555E-06  4.9920E-05
  5.00000000000E-01  0.00000000000E+00 -3.30000000000E+01  2.00971E+02   75.000  0.0000E+00  5.3421E-01  5.5280E-02  4.9688E-05
  5.00000000000E-01  0.00000000000E+00 -3.50000000000E+01  2.01006E+02   75.000  0.0000E+00  5.3416E-01  5.5280E-02  4.9679E-05
  5.00000000000E-01  0.00000000000E+00 -3.70000000000E+01  2.01012E+02   75.000  0.0000E+00  5.3416E-01  5.5280E-02  4.9678E-05
  5.00000000000E-01  0.00000000000E+00 -3.90000000000E+01  2.01036E+02   75.000  0.0000E+00  5.3413E-01  5.5280E-02  4.9672E-05
  1.60700000000E+00  0.00000000000E+00 -1.00000000000E+00  1.99973E+02   75.000  0.0000E+00  5.3545E-01  2.4178E-11  4.9936E-05
  1.60700000000E+00  0.00000000000E+00 -3.00000000000E+00  1.99997E+02   75.000  0.0000E+00  5.3542E-01  2.4178E-11  4.9930E-05
  1.60700000000E+00  0.00000000000E+00 -5.00000000000E+00  2.00000E+02   75.000  0.0000E+00  5.3542E-01  2.4178E-11  4.9929E-05
  1.60700000000E+00  0.00000000000E+00 -7.00000000000E+00  2.00000E+02   75.000  0.0000E+00  5.3542E-01  2.4178E-11  4.9929E-05
  1.60700000000E+00  0.00000000000E+00 -9.00000000000E+00  2.00000E+02   75.000  0.0000E+00  5.3542E-01  2.4178E-11  4.9929E-05
  1.60700000000E+00  0.00000000000E+00 -1.10000000000E+01  2.00000E+02   75.000  0.0000E+00  5.3542E-01  2.4178E-11  4.9929E-05
  1.60700000000E+00  0.00000000000E+00 -1.30000000000E+01  2.00000E+02   75.000  0.0000E+00  5.3542E-01  2.4178E-11  4.9929E-05
  1.60700000000E+00  0.00000000000E+00 -1.50000000000E+01  2.00000E+02   75.000  0.0000E+00  5.3542E-01  2.4178E-11  4.9929E-05
  1.60700000000E+00  0.00000000000E+00 -1.70000000000E+01  2.00000E+02   75.000  0.0000E+00  5.3542E-01  2.4178E-11  4.9929E-05
  1.60700000000E+00  0.00000000000E+00 -1.90000000000E+01  2.00000E+02   75.000  0.0000E+00  5.3542E-01  2.4178E-11  4.9929E-05
  1.60700000000E+00  0.00000000000E+00 -2.10000000000E+01  2.00000E+02   75.000  0.0000E+00  5.3542E-01  2.4178E-11  4.9929E-05
  1.60700000000E+00  0.00000000000E+00 -2.30000000000E+01  2.00000E+02   75.000  0.0000E+00  5.3542E-01  2.4178E-11  4.9929E-05
  1.60700000000E+00  0.00000000000E+00 -2.50000000000E+01  2.00000E+02   75.000  0.0000E+00  5.3542E-01  2.4178E-11  4.9929E-05
  1.60700000000E+00  0.00000000000E+00 -2.70000000000E+01  2.00000E+02   75.000  0.0000E+00  5.3542E-01  2.4178E-11  4.9929E-05
  1.60700000000E+00  0.00000000000E+00 -2.90000000000E+01  2.00002E+02   75.000  0.0000E+00  5.3542E-01  2.4178E-11  4.9928E-05
  1.60700000000E+00  0.00000000000E+00 -3.10000000000E+01  2.00028E+02   75.000  0.0000E+00  5.3538E-01  1.8184E-10  4.9922E-05
  1.60700000000E+00  0.00000000000E+00 -3.30000000000E+01  2.00401E+02   75.000  0.0000E+00  5.3492E-01  2.2395E-05  4.9829E-05
  1.60700000000E+00  0.00000000000E+00 -3.50000000000E+01  2.00427E+02   75.000  0.0000E+00  5.3488E-01  2.2741E-05  4.9823E-05
  1.60700000000E+00  0.00000000000E+00 -3.70000000000E+01  2.00432E+02   75.000  0.0000E+00  5.3488E-01  2.2750E-05  4.9821E-05
  1.60700000000E+00  0.00000000000E+00 -3.90000000000E+01  2.00456E+02   75.000  0.0000E+00  5.3485E-01  2.2751E-05  4.9815E-05
  2.95300000000E+00  0.00000000000E+00 -1.00000000000E+00  1.99973E+02   75.000  0.0000E+00  5.3545E-01  2.4178E-11  4.9936E-05
  2.95300000000E+00  0.00000000000E+00 -3.00000000000E+00  1.99997E+02   75.000  0.0000E+00  5.3542E-01  2.4178E-11  4.9930E-05
  2.95300000000E+00  0.00000000000E+00 -5.00000000000E+00  2.00000E+02   75.000  0.0000E+00  5.3542E-01  2.4178E-11  4.9929E-05
  2.95300000000E+00  0.00000000000E+00 -7.00000000000E+00  2.00000E+02   75.000  0.0000E+00  5.3542E-01  2.4178E-11  4.9929E-05
  2.95300000000E+00  0.00000000000E+00 -9.00000000000E+00  2.00000E+02   75.000  0.0000E+00  5.3542E-01  2.4178E-11  4.9929E-05
  2.95300000000E+00  0.00000000000E+00 -1.10000000000E+01  2.00000E+02   75.000  0.0000E+00  5.3542E-01  2.4178E-11  4.9929E-05
  2.95300000000E+00  0.00000000000E+00 -1.30000000000E+01  2.00000E+02   75.000  0.0000E+00  5.3542E-01  2.4178E-11  4.9929E-05
  2.95300000000E+00  0.00000000000E+00 -1.50000000000E+01  2.00000E+02   75.000  0.0000E+00  5.3542E-01  2.4178E-11  4.9929E-05
  2.95300000000E+00  0.00000000000E+00 -1.70000000000E+01  2.00000E+02   75.000  0.0000E+00  5.3542E-01  2.4178E-11  4.9929E-05
  2.95300000000E+00  0.00000000000E+00 -1.90000000000E+01  2.00000E+02   75.000  0.0000E+00  5.3542E-01  2.4178E-11  4.9929E-05
  2.95300000000E+00  0.00000000000E+00 -2.10000000000E+01  2.00000E+02   75.000  0.0000E+00  5.3542E-01  2.4178E-11  4.9929E-05
  2.95300000000E+00  0.00000000000E+00 -2.30000000000E+01  2.00000E+02   75.000  0.0000E+00  5.3542E-01  2.4178E-11  4.9929E-05
  2.95300000000E+00  0.00000000000E+00 -2.50000000000E+01  2.00000E+02   75.000  0.0000E+00  5.3542E-01  2.4178E-11  4.9929E-05
  2.95300000000E+00  0.00000000000E+00 -2.70000000000E+01  2.00000E+02   75.000  0.0000E+00  5.3542E-01  2.4178E-11  4.9929E-05
  2.95300000000E+00  0.00000000000E+00 -2.90000000000E+01  2.00002E+02   75.000  0.0000E+00  5.3542E-01  2.4178E-11  4.9929E-05
  2.95300000000E+00  0.00000000000E+00 -3.10000000000E+01  2.00019E+02   75.000  0.0000E+00  5.3540E-01  2.4179E-11  4.9924E-05
  2.95300000000E+00  0.00000000000E+00 -3.30000000000E+01  2.00175E+02   75.000  0.0000E+00  5.3520E-01  2.9607E-09  4.9885E-05
  2.95300000000E+00  0.00000000000E+00 -3.50000000000E+01  2.00192E+02   75.000  0.0000E+00  5.3518E-01  3.1297E-09  4.9881E-05
  2.95300000000E+00  0.00000000000E+00 -3.70000000000E+01  2.00196E+02   75.000  0.0000E+00  5.3517E-01  3.1365E-09  4.9880E-05
  2.95300000000E+00  0.00000000000E+00 -3.90000000000E+01  2.00221E+02   75.000  0.0000E+00  5.3514E-01  3.1368E-09  4.9874E-05
  4.58600000000E+00  0.00000000000E+00 -1.00000000000E+00  1.99973E+02   75.000  0.0000E+00  5.3545E-01  2.4178E-11  4.9936E-05
  4.58600000000E+00  0.00000000000E+00 -3.00000000000E+00  1.99997E+02   75.000  0.0000E+00  5.3542E-01  2.4178E-11  4.9930E-05
  4.58600000000E+00  0.00000000000E+00 -5.00000000000E+00  2.00000E+02   75.000  0.0000E+00  5.3542E-01  2.4178E-11  4.9929E-05
  4.58600000000E+00  0.00000000000E+00 -7.00000000000E+00  2.00000E+02   75.000  0.0000E+00  5.3542E-01  2.4178E-11  4.9929E-05
  4.58600000000E+00  0.00000000000E+00 -9.00000000000E+00  2.00000E+02   75.000  0.0000E+00  5.3542E-01  2.4178E-11  4.9929E-05
  4.58600000000E+00  0.00000000000E+00 -1.10000000000E+01  2.00000E+02   75.000  0.0000E+00  5.3542E-01  2.4178E-11  4.9929E-05
  4.58600000000E+00  0.00000000000E+00 -1.30000000000E+01  2.00000E+02   75.000  0.0000E+00  5.3542E-01  2.4178E-11  4.9929E-05
  4.58600000000E+00  0.00000000000E+00 -1.50000000000E+01  2.00000E+02   75.000  0.0000E+00  5.3542E-01  2.4178E-11  4.9929E-05
  4.58600000000E+00  0.00000000000E+00 -1.70000000000E+01  2.00000E+02   75.000  0.0000E+00  5.3542E-01  2.4178E-11  4.9929E-05
  4.58600000000E+00  0.00000000000E+00 -1.90000000000E+01  2.00000E+02   75.000  0.0000E+00  5.3542E-01  2.4178E-11  4.9929E-05
  4.58600000000E+00  0.00000000000E+00 -2.10000000000E+01  2.00000E+02   75.000  0.0000E+00  5.3542E-01  2.4178E-11  4.9929E-05
  4.58600000000E+00  0.00000000000E+00 -2.30000000000E+01  2.00000E+02   75.000  0.0000E+00  5.3542E-01  2.4178E-11  4.9929E-05
  4.58600000000E+00  0.00000000000E+00 -2.50000000000E+01  2.00000E+02   75.000  0.0000E+00  5.3542E-01  2.4178E-11  4.9929E-05
  4.58600000000E+00  0.00000000000E+00 -2.70000000000E+01  2.00000E+02   75.000  0.0000E+00  5.3542E-01  2.4178E-11  4.9929E-05
  4.58600000000E+00  0.00000000000E+00 -2.90000000000E+01  2.00001E+02   75.000  0.0000E+00  5.3542E-01  2.4178E-11  4.9929E-05
  4.58600000000E+00  0.00000000000E+00 -3.10000000000E+01  2.00010E+02   75.000  0.0000E+00  5.3541E-01  2.4178E-11  4.9926E-05
  4.58600000000E+00  0.00000000000E+00 -3.30000000000E+01  2.00072E+02   75.000  0.0000E+00  5.3533E-01  2.4306E-11  4.9911E-05
  4.58600000000E+00  0.00000000000E+00 -3.50000000000E+01  2.00082E+02   75.000  0.0000E+00  5.3532E-01  2.4323E-11  4.9909E-05
  4.58600000000E+00  0.00000000000E+00 -3.70000000000E+01  2.00086E+02   75.000  0.0000E+00  5.3531E-01  2.4324E-11  4.9908E-05
  4.58600000000E+00  0.00000000000E+00 -3.90000000000E+01  2.00110E+02   75.000  0.0000E+00  5.3528E-01  2.4324E-11  4.9902E-05
  6.57100000000E+00  0.00000000000E+00 -1.00000000000E+00  1.99973E+02   75.000  0.0000E+00  5.3545E-01  2.4178E-11  4.9936E-05
  6.57100000000E+00  0.00000000000E+00 -3.00000000000E+00  1.99997E+02   75.000  0.0000E+00  5.3542E-01  2.4178E-11  4.9930E-05
  6.57100000000E+00  0.00000000000E+00 -5.00000000000E+00  2.00000E+02   75.000  0.0000E+00  5.3542E-01  2.4178E-11  4.9929E-05
  6.57100000000E+00  0.00000000000E+00 -7.00000000000E+00  2.00000E+02   75.000  0.0000E+00  5.3542E-01  2.4178E-11  4.9929E-05
  6.57100000000E+00  0.00000000000E+00 -9.00000000000E+00  2.00000E+02   75.000  0.0000E+00  5.3542E-01  2.4178E-11  4.9929E-05
  6.57100000000E+00  0.00000000000E+00 -1.10000000000E+01  2.00000E+02   75.000  0.0000E+00  5.3542E-01  2.4178E-11  4.9929E-05
  6.57100000000E+00  0.00000000000E+00 -1.30000000000E+01  2.00000E+02   75.000  0.0000E+00  5.3542E-01  2.4178E-11  4.9929E-05
  6.57100000000E+00  0.00000000000E+00 -1.50000000000E+01  2.00000E+02   75.000  0.0000E+00  5.3542E-01  2.4178E-11  4.9929E-05
  6.57100000000E+00  0.00000000000E+00 -1.70000000000E+01  2.00000E+02   75.000  0.0000E+00  5.3542E-01  2.4178E-11  4.9929E-05
  6.57100000000E+00  0.00000000000E+00 -1.90000000000E+01  2.00000E+02   75.000  0.0000E+00  5.3542E-01  2.4178E-11  4.9929E-05
  6.57100000000E+00  0.00000000000E+00 -2.10000000000E+01  2.00000E+02   75.000  0.0000E+00  5.3542E-01  2.4178E-11  4.9929E-05
  6.57100000000E+00  0.00000000000E+00 -2.30000000000E+01  2.00000E+02   75.000  0.0000E+00  5.3542E-01  2.4178E-11  4.9929E-05
  6.57100000000E+00  0.00000000000E+00 -2.50000000000E+01  2.00000E+02   75.000  0.0000E+00  5.3542E-01  2.4178E-11  4.9929E-05
  6.57100000000E+00  0.00000000000E+00 -2.70000000000E+01  2.00000E+02   75.000  0.0000E+00  5.3542E-01  2.4178E-11  4.9929E-05
  6.57100000000E+00  0.00000000000E+00 -2.90000000000E+01  2.00001E+02   75.000  0.0000E+00  5.3542E-01  2.4178E-11  4.9929E-05
  6.57100000000E+00  0.00000000000E+00 -3.10000000000E+01  2.00005E+02   75.000  0.0000E+00  5.3541E-01  2.4178E-11  4.9928E-05
  6.57100000000E+00  0.00000000000E+00 -3.30000000000E+01  2.00027E+02   75.000  0.0000E+00  5.3539E-01  2.4178E-11  4.9922E-05
  6.57100000000E+00  0.00000000000E+00 -3.50000000000E+01  2.00031E+02   75.000  0.0000E+00  5.3538E-01  2.4178E-11  4.9921E-05
  6.57100000000E+00  0.00000000000E+00 -3.70000000000E+01  2.00035E+02   75.000  0.0000E+00  5.3538E-01  2.4178E-11  4.9920E-05
  6.57100000000E+00  0.00000000000E+00 -3.90000000000E+01  2.00059E+02   75.000  0.0000E+00  5.3535E-01  2.4178E-11  4.9914E-05
  8.98200000000E+00  0.00000000000E+00 -1.00000000000E+00  1.99973E+02   75.000  0.0000E+00  5.3545E-01  2.4178E-11  4.9936E-05
  8.98200000000E+00  0.00000000000E+00 -3.00000000000E+00  1.99997E+02   75.000  0.0000E+00  5.3542E-01  2.4178E-11  4.9930E-05
  8.98200000000E+00  0.00000000000E+00 -5.00000000000E+00  2.00000E+02   75.000  0.0000E+00  5.3542E-01  2.4178E-11  4.9929E-05
  8.98200000000E+00  0.00000000000E+00 -7.00000000000E+00  2.00000E+02   75.000  0.0000E+00  5.3542E-01  2.4178E-11  4.9929E-05
  8.98200000000E+00  0.00000000000E+00 -9.00000000000E+00  2.00000E+02   75.000  0.0000E+00  5.3542E-01  2.4178E-11  4.9929E-05
  8.98200000000E+00  0.00000000000E+00 -1.10000000000E+01  2.00000E+02   75.000  0.0000E+00  5.3542E-01  2.4178E-11  4.9929E-05
  8.98200000000E+00  0.00000000000E+00 -1.30000000000E+01  2.00000E+02   75.000  0.0000E+00  5.3542E-01  2.4178E-11  4.9929E-05
  8.98200000000E+00  0.00000000000E+00 -1.50000000000E+01  2.00000E+02   75.000  0.0000E+00  5.3542E-01  2.4178E-11  4.9929E-05
  8.98200000000E+00  0.00000000000E+00 -1.70000000000E+01  2.00000E+02   75.000  0.0000E+00  5.3542E-01  2.4178E-11  4.9929E-05
  8.98200000000E+00  0.00000000000E+00 -1.90000000000E+01  2.00000E+02   75.000  0.0000E+00  5.3542E-01  2.4178E-11  4.9929E-05
  8.98200000000E+00  0.00000000000E+00 -2.10000000000E+01  2.00000E+02   75.000  0.0000E+00  5.3542E-01  2.4178E-11  4.9929E-05
  8.98200000000E+00  0.00000000000E+00 -2.30000000000E+01  2.00000E+02   75.000  0.0000E+00  5.3542E-01  2.4178E-11  4.9929E-05
  8.98200000000E+00  0.00000000000E+00 -2.50000000000E+01  2.00000E+02   75.000  0.0000E+00  5.3542E-01  2.4178E-11  4.9929E-05
  8.98200000000E+00  0.00000000000E+00 -2.70000000000E+01  2.00000E+02   75.000  0.0000E+00  5.3542E-01  2.4178E-11  4.9929E-05
  8.98200000000E+00  0.00000000000E+00 -2.90000000000E+01  2.00000E+02   75.000  0.0000E+00  5.3542E-01  2.4178E-11  4.9929E-05
  8.98200000000E+00  0.00000000000E+00 -3.10000000000E+01  2.00002E+02   75.000  0.0000E+00  5.3542E-01  2.4178E-11  4.9928E-05
  8.98200000000E+00  0.00000000000E+00 -3.30000000000E+01  2.00009E+02   75.000  0.0000E+00  5.3541E-01  2.4178E-11  4.9927E-05
  8.98200000000E+00  0.00000000000E+00 -3.50000000000E+01  2.00011E+02   75.000  0.0000E+00  5.3541E-01  2.4178E-11  4.9926E-05
  8.98200000000E+00  0.00000000000E+00 -3.70000000000E+01  2.00014E+02   75.000  0.0000E+00  5.3540E-01  2.4178E-11  4.9926E-05
  8.98200000000E+00  0.00000000000E+00 -3.90000000000E+01  2.00038E+02   75.000  0.0000E+00  5.3537E-01  2.4178E-11  4.9920E-05
  1.19100000000E+01  0.00000000000E+00 -1.00000000000E+00  1.99973E+02   75.000  0.0000E+00  5.3545E-01  2.4178E-11  4.9936E-05
  1.19100000000E+01  0.00000000000E+00 -3.00000000000E+00  1.99997E+02   75.000  0.0000E+00  5.3542E-01  2.4178E-11  4.9930E-05
  1.19100000000E+01  0.00000000000E+00 -5.00000000000E+00  2.00000E+02   75.000  0.0000E+00  5.3542E-01  2.4178E-11  4.9929E-05
  1.19100000000E+01  0.00000000000E+00 -7.00000000000E+00  2.00000E+02   75.000  0.0000E+00  5.3542E-01  2.4178E-11  4.9929E-05
  1.19100000000E+01  0.00000000000E+00 -9.00000000000E+00  2.00000E+02   75.000  0.0000E+00  5.3542E-01  2.4178E-11  4.9929E-05
  1.19100000000E+01  0.00000000000E+00 -1.10000000000E+01  2.00000E+02   75.000  0.0000E+00  5.3542E-01  2.4178E-11  4.9929E-05
  1.19100000000E+01  0.00000000000E+00 -1.30000000000E+01  2.00000E+02   75.000  0.0000E+00  5.3542E-01  2.4178E-11  4.9929E-05
  1.19100000000E+01  0.00000000000E+00 -1.50000000000E+01  2.00000E+02   75.000  0.0000E+00  5.3542E-01  2.4178E-11  4.9929E-05
  1.19100000000E+01  0.00000000000E+00 -1.70000000000E+01  2.00000E+02   75.000  0.0000E+00  5.3542E-01  2.4178E-11  4.9929E-05
  1.19100000000E+01  0.00000000000E+00 -1.90000000000E+01  2.00000E+02   75.000  0.0000E+00  5.3542E-01  2.4178E-11  4.9929E-05
  1.19100000000E+01  0.00000000000E+00 -2.10000000000E+01  2.00000E+02   75.000  0.0000E+00  5.3542E-01  2.4178E-11  4.9929E-05
  1.19100000000E+01  0.00000000000E+00 -2.30000000000E+01  2.00000E+02   75.000  0.0000E+00  5.3542E-01  2.4178E-11  4.9929E-05
  1.19100000000E+01  0.00000000000E+00 -2.50000000000E+01  2.00000E+02   75.000  0.0000E+00  5.3542E-01  2.4178E-11  4.9929E-05
  1.19100000000E+01  0.00000000000E+00 -2.70000000000E+01  2.00000E+02   75.000  0.0000E+00  5.3542E-01  2.4178E-11  4.9929E-05
  1.19100000000E+01  0.00000000000E+00 -2.90000000000E+01  2.00000E+02   75.000  0.0000E+00  5.3542E-01  2.4178E-11  4.9929E-05
  1.19100000000E+01  0.00000000000E+00 -3.10000000000E+01  2.00001E+02   75.000  0.0000E+00  5.3542E-01  2.4178E-11  4.9929E-05
  1.19100000000E+01  0.00000000000E+00 -3.30000000000E+01  2.00002E+02   75.000  0.0000E+00  5.3542E-01  2.4178E-11  4.9928E-05
  1.19100000000E+01  0.00000000000E+00 -3.50000000000E+01  2.00003E+02   75.000  0.0000E+00  5.3542E-01  2.4178E-11  4.9928E-05
  1.19100000000E+01  0.00000000000E+00 -3.70000000000E+01  2.00006E+02   75.000  0.0000E+00  5.3541E-01  2.4178E-11  4.9927E-05
  1.19100000000E+01  0.00000000000E+00 -3.90000000000E+01  2.00030E+02   75.000  0.0000E+00  5.3538E-01  2.4178E-11  4.9921E-05
  1.54700000000E+01  0.00000000000E+00 -1.00000000000E+00  1.99973E+02   75.000  0.0000E+00  5.3545E-01  2.4178E-11  4.9936E-05
  1.54700000000E+01  0.00000000000E+00 -3.00000000000E+00  1.99997E+02   75.000  0.0000E+00  5.3542E-01  2.4178E-11  4.9930E-05
  1.54700000000E+01  0.00000000000E+00 -5.00000000000E+00  2.00000E+02   75.000  0.0000E+00  5.3542E-01  2.4178E-11  4.9929E-05
  1.54700000000E+01  0.00000000000E+00 -7.00000000000E+00  2.00000E+02   75.000  0.0000E+00  5.3542E-01  2.4178E-11  4.9929E-05
  1.54700000000E+01  0.00000000000E+00 -9.00000000000E+00  2.00000E+02   75.000  0.0000E+00  5.3542E-01  2.4178E-11  4.9929E-05
  1.54700000000E+01  0.00000000000E+00 -1.10000000000E+01  2.00000E+02   75.000  0.0000E+00  5.3542E-01  2.4178E-11  4.9929E-05
  1.54700000000E+01  0.00000000000E+00 -1.30000000000E+01  2.00000E+02   75.000  0.0000E+00  5.3542E-01  2.4178E-11  4.9929E-05
  1.54700000000E+01  0.00000000000E+00 -1.50000000000E+01  2.00000E+02   75.000  0.0000E+00  5.3542E-01  2.4178E-11  4.9929E-05
  1.54700000000E+01  0.00000000000E+00 -1.70000000000E+01  2.00000E+02   75.000  0.0000E+00  5.3542E-01  2.4178E-11  4.9929E-05
  1.54700000000E+01  0.00000000000E+00 -1.90000000000E+01  2.00000E+02   75.000  0.0000E+00  5.3542E-01  2.4178E-11  4.9929E-05
  1.54700000000E+01  0.00000000000E+00 -2.10000000000E+01  2.00000E+02   75.000  0.0000E+00  5.3542E-01  2.4178E-11  4.9929E-05
  1.54700000000E+01  0.00000000000E+00 -2.30000000000E+01  2.00000E+02   75.000  0.0000E+00  5.3542E-01  2.4178E-11  4.9929E-05
  1.54700000000E+01  0.00000000000E+00 -2.50000000000E+01  2.00000E+02   75.000  0.0000E+00  5.3542E-01  2.4178E-11  4.9929E-05
  1.54700000000E+01  0.00000000000E+00 -2.70000000000E+01  2.00000E+02   75.000  0.0000E+00  5.3542E-01  2.4178E-11  4.9929E-05
  1.54700000000E+01  0.00000000000E+00 -2.90000000000E+01  2.00000E+02   75.000  0.0000E+00  5.3542E-01  2.4178E-11  4.9929E-05
  1.54700000000E+01  0.00000000000E+00 -3.10000000000E+01  2.00000E+02   75.000  0.0000E+00  5.3542E-01  2.4178E-11  4.9929E-05
  1.54700000000E+01  0.00000000000E+00 -3.30000000000E+01  2.00001E+02   75.000  0.0000E+00  5.3542E-01  2.4178E-11  4.9929E-05
  1.54700000000E+01  0.00000000000E+00 -3.50000000000E+01  2.00001E+02   75.000  0.0000E+00  5.3542E-01  2.4178E-11  4.9929E-05
  1.54700000000E+01  0.00000000000E+00 -3.70000000000E+01  2.00004E+02   75.000  0.0000E+00  5.3541E-01  2.4178E-11  4.9928E-05
  1.54700000000E+01  0.00000000000E+00 -3.90000000000E+01  2.00028E+02   75.000  0.0000E+00  5.3538E-01  2.4178E-11  4.9922E-05
  1.97900000000E+01  0.00000000000E+00 -1.00000000000E+00  1.99973E+02   75.000  0.0000E+00  5.3545E-01  2.4178E-11  4.9936E-05
  1.97900000000E+01  0.00000000000E+00 -3.00000000000E+00  1.99997E+02   75.000  0.0000E+00  5.3542E-01  2.4178E-11  4.9930E-05
  1.97900000000E+01  0.00000000000E+00 -5.00000000000E+00  2.00000E+02   75.000  0.0000E+00  5.3542E-01  2.4178E-11  4.9929E-05
  1.97900000000E+01  0.00000000000E+00 -7.00000000000E+00  2.00000E+02   75.000  0.0000E+00  5.3542E-01  2.4178E-11  4.9929E-05
  1.97900000000E+01  0.00000000000E+00 -9.00000000000E+00  2.00000E+02   75.000  0.0000E+00  5.3542E-01  2.4178E-11  4.9929E-05
  1.97900000000E+01  0.00000000000E+00 -1.10000000000E+01  2.00000E+02   75.000  0.0000E+00  5.3542E-01  2.4178E-11  4.9929E-05
  1.97900000000E+01  0.00000000000E+00 -1.30000000000E+01  2.00000E+02   75.000  0.0000E+00  5.3542E-01  2.4178E-11  4.9929E-05
  1.97900000000E+01  0.00000000000E+00 -1.50000000000E+01  2.00000E+02   75.000  0.0000E+00  5.3542E-01  2.4178E-11  4.9929E-05
  1.97900000000E+01  0.00000000000E+00 -1.70000000000E+01  2.00000E+02   75.000  0.0000E+00  5.3542E-01  2.4178E-11  4.9929E-05
  1.97900000000E+01  0.00000000000E+00 -1.90000000000E+01  2.00000E+02   75.000  0.0000E+00  5.3542E-01  2.4178E-11  4.9929E-05
  1.97900000000E+01  0.00000000000E+00 -2.10000000000E+01  2.00000E+02   75.000  0.0000E+00  5.3542E-01  2.4178E-11  4.9929E-05
  1.97900000000E+01  0.00000000000E+00 -2.30000000000E+01  2.00000E+02   75.000  0.0000E+00  5.3542E-01  2.4178E-11  4.9929E-05
  1.97900000000E+01  0.00000000000E+00 -2.50000000000E+01  2.00000E+02   75.000  0.0000E+00  5.3542E-01  2.4178E-11  4.9929E-05
  1.97900000000E+01  0.00000000000E+00 -2.70000000000E+01  2.00000E+02   75.000  0.0000E+00  5.3542E-01  2.4178E-11  4.9929E-05
  1.97900000000E+01  0.00000000000E+00 -2.90000000000E+01  2.00000E+02   75.000  0.0000E+00  5.3542E-01  2.4178E-11  4.9929E-05
  1.97900000000E+01  0.00000000000E+00 -3.10000000000E+01  2.00000E+02   75.000  0.0000E+00  5.3542E-01  2.4178E-11  4.9929E-05
  1.97900000000E+01  0.00000000000E+00 -3.30000000000E+01  2.00000E+02   75.000  0.0000E+00  5.3542E-01  2.4178E-11  4.9929E-05
  1.97900000000E+01  0.00000000000E+00 -3.50000000000E+01  2.00000E+02   75.000  0.0000E+00  5.3542E-01  2.4178E-11  4.9929E-05
  1.97900000000E+01  0.00000000000E+00 -3.70000000000E+01  2.00003E+02   75.000  0.0000E+00  5.3542E-01  2.4178E-11  4.9928E-05
  1.97900000000E+01  0.00000000000E+00 -3.90000000000E+01  2.00027E+02   75.000  0.0000E+00  5.3539E-01  2.4178E-11  4.9922E-05
  2.50400000000E+01  0.00000000000E+00 -1.00000000000E+00  1.99973E+02   75.000  0.0000E+00  5.3545E-01  2.4178E-11  4.9936E-05
  2.50400000000E+01  0.00000000000E+00 -3.00000000000E+00  1.99997E+02   75.000  0.0000E+00  5.3542E-01  2.4178E-11  4.9930E-05
  2.50400000000E+01  0.00000000000E+00 -5.00000000000E+00  2.00000E+02   75.000  0.0000E+00  5.3542E-01  2.4178E-11  4.9929E-05
  2.50400000000E+01  0.00000000000E+00 -7.00000000000E+00  2.00000E+02   75.000  0.0000E+00  5.3542E-01  2.4178E-11  4.9929E-05
  2.50400000000E+01  0.00000000000E+00 -9.00000000000E+00  2.00000E+02   75.000  0.0000E+00  5.3542E-01  2.4178E-11  4.9929E-05
  2.50400000000E+01  0.00000000000E+00 -1.10000000000E+01  2.00000E+02   75.000  0.0000E+00  5.3542E-01  2.4178E-11  4.9929E-05
  2.50400000000E+01  0.00000000000E+00 -1.30000000000E+01  2.00000E+02   75.000  0.0000E+00  5.3542E-01  2.4178E-11  4.9929E-05
  2.50400000000E+01  0.00000000000E+00 -1.50000000000E+01  2.00000E+02   75.000  0.0000E+00  5.3542E-01  2.4178E-11  4.9929E-05
  2.50400000000E+01  0.00000000000E+00 -1.70000000000E+01  2.00000E+02   75.000  0.0000E+00  5.3542E-01  2.4178E-11  4.9929E-05
  2.50400000000E+01  0.00000000000E+00 -1.90000000000E+01  2.00000E+02   75.000  0.0000E+00  5.3542E-01  2.4178E-11  4.9929E-05
  2.50400000000E+01  0.00000000000E+00 -2.10000000000E+01  2.00000E+02   75.000  0.0000E+00  5.3542E-01  2.4178E-11  4.9929E-05
  2.50400000000E+01  0.00000000000E+00 -2.30000000000E+01  2.00000E+02   75.000  0.0000E+00  5.3542E-01  2.4178E-11  4.9929E-05
  2.50400000000E+01  0.00000000000E+00 -2.50000000000E+01  2.00000E+02   75.000  0.0000E+00  5.3542E-01  2.4178E-11  4.9929E-05
  2.50400000000E+01  0.00000000000E+00 -2.70000000000E+01  2.00000E+02   75.000  0.0000E+00  5.3542E-01  2.4178E-11  4.9929E-05
  2.50400000000E+01  0.00000000000E+00 -2.90000000000E+01  2.00000E+02   75.000  0.0000E+00  5.3542E-01  2.4178E-11  4.9929E-05
  2.50400000000E+01  0.00000000000E+00 -3.10000000000E+01  2.00000E+02   75.000  0.0000E+00  5.3542E-01  2.4178E-11  4.9929E-05
  2.50400000000E+01  0.00000000000E+00 -3.30000000000E+01  2.00000E+02   75.000  0.0000E+00  5.3542E-01  2.4178E-11  4.9929E-05
  2.50400000000E+01  0.00000000000E+00 -3.50000000000E+01  2.00000E+02   75.000  0.0000E+00  5.3542E-01  2.4178E-11  4.9929E-05
  2.50400000000E+01  0.00000000000E+00 -3.70000000000E+01  2.00003E+02   75.000  0.0000E+00  5.3542E-01  2.4178E-11  4.9928E-05
  2.50400000000E+01  0.00000000000E+00 -3.90000000000E+01  2.00027E+02   75.000  0.0000E+00  5.3539E-01  2.4178E-11  4.9922E-05
  3.14200000000E+01  0.00000000000E+00 -1.00000000000E+00  1.99973E+02   75.000  0.0000E+00  5.3545E-01  2.4178E-11  4.9936E-05
  3.14200000000E+01  0.00000000000E+00 -3.00000000000E+00  1.99997E+02   75.000  0.0000E+00  5.3542E-01  2.4178E-11  4.9930E-05
  3.14200000000E+01  0.00000000000E+00 -5.00000000000E+00  2.00000E+02   75.000  0.0000E+00  5.3542E-01  2.4178E-11  4.9929E-05
  3.14200000000E+01  0.00000000000E+00 -7.00000000000E+00  2.00000E+02   75.000  0.0000E+00  5.3542E-01  2.4178E-11  4.9929E-05
  3.14200000000E+01  0.00000000000E+00 -9.00000000000E+00  2.00000E+02   75.000  0.0000E+00  5.3542E-01  2.4178E-11  4.9929E-05
  3.14200000000E+01  0.00000000000E+00 -1.10000000000E+01  2.00000E+02   75.000  0.0000E+00  5.3542E-01  2.4178E-11  4.9929E-05
  3.14200000000E+01  0.00000000000E+00 -1.30000000000E+01  2.00000E+02   75.000  0.0000E+00  5.3542E-01  2.4178E-11  4.9929E-05
  3.14200000000E+01  0.00000000000E+00 -1.50000000000E+01  2.00000E+02   75.000  0.0000E+00  5.3542E-01  2.4178E-11  4.9929E-05
  3.14200000000E+01  0.00000000000E+00 -1.70000000000E+01  2.00000E+02   75.000  0.0000E+00  5.3542E-01  2.4178E-11  4.9929E-05
  3.14200000000E+01  0.00000000000E+00 -1.90000000000E+01  2.00000E+02   75.000  0.0000E+00  5.3542E-01  2.4178E-11  4.9929E-05
  3.14200000000E+01  0.00000000000E+00 -2.10000000000E+01  2.00000E+02   75.000  0.0000E+00  5.3542E-01  2.4178E-11  4.9929E-05
  3.14200000000E+01  0.00000000000E+00 -2.30000000000E+01  2.00000E+02   75.000  0.0000E+00  5.3542E-01  2.4178E-11  4.9929E-05
  3.14200000000E+01  0.00000000000E+00 -2.50000000000E+01  2.00000E+02   75.000  0.0000E+00  5.3542E-01  2.4178E-11  4.9929E-05
  3.14200000000E+01  0.00000000000E+00 -2.70000000000E+01  2.00000E+02   75.000  0.0000E+00  5.3542E-01  2.4178E-11  4.9929E-05
  3.14200000000E+01  0.00000000000E+00 -2.90000000000E+01  2.00000E+02   75.000  0.0000E+00  5.3542E-01  2.4178E-11  4.9929E-05
  3.14200000000E+01  0.00000000000E+00 -3.10000000000E+01  2.00000E+02   75.000  0.0000E+00  5.3542E-01  2.4178E-11  4.9929E-05
  3.14200000000E+01  0.00000000000E+00 -3.30000000000E+01  2.00000E+02   75.000  0.0000E+00  5.3542E-01  2.4178E-11  4.9929E-05
  3.14200000000E+01  0.00000000000E+00 -3.50000000000E+01  2.00000E+02   75.000  0.0000E+00  5.3542E-01  2.4178E-11  4.9929E-05
  3.14200000000E+01  0.00000000000E+00 -3.70000000000E+01  2.00003E+02   75.000  0.0000E+00  5.3542E-01  2.4178E-11  4.9928E-05
  3.14200000000E+01  0.00000000000E+00 -3.90000000000E+01  2.00027E+02   75.000  0.0000E+00  5.3539E-01  2.4178E-11  4.9922E-05
  3.91600000000E+01  0.00000000000E+00 -1.00000000000E+00  1.99973E+02   75.000  0.0000E+00  5.3545E-01  2.4178E-11  4.9936E-05
  3.91600000000E+01  0.00000000000E+00 -3.00000000000E+00  1.99997E+02   75.000  0.0000E+00  5.3542E-01  2.4178E-11  4.9930E-05
  3.91600000000E+01  0.00000000000E+00 -5.00000000000E+00  2.00000E+02   75.000  0.0000E+00  5.3542E-01  2.4178E-11  4.9929E-05
  3.91600000000E+01  0.00000000000E+00 -7.00000000000E+00  2.00000E+02   75.000  0.0000E+00  5.3542E-01  2.4178E-11  4.9929E-05
  3.91600000000E+01  0.00000000000E+00 -9.00000000000E+00  2.00000E+02   75.000  0.0000E+00  5.3542E-01  2.4178E-11  4.9929E-05
  3.91600000000E+01  0.00000000000E+00 -1.10000000000E+01  2.00000E+02   75.000  0.0000E+00  5.3542E-01  2.4178E-11  4.9929E-05
  3.91600000000E+01  0.00000000000E+00 -1.30000000000E+01  2.00000E+02   75.000  0.0000E+00  5.3542E-01  2.4178E-11  4.9929E-05
  3.91600000000E+01  0.00000000000E+00 -1.50000000000E+01  2.00000E+02   75.000  0.0000E+00  5.3542E-01  2.4178E-11  4.9929E-05
  3.91600000000E+01  0.00000000000E+00 -1.70000000000E+01  2.00000E+02   75.000  0.0000E+00  5.3542E-01  2.4178E-11  4.9929E-05
  3.91600000000E+01  0.00000000000E+00 -1.90000000000E+01  2.00000E+02   75.000  0.0000E+00  5.3542E-01  2.4178E-11  4.9929E-05
  3.91600000000E+01  0.00000000000E+00 -2.10000000000E+01  2.00000E+02   75.000  0.0000E+00  5.3542E-01  2.4178E-11  4.9929E-05
  3.91600000000E+01  0.00000000000E+00 -2.30000000000E+01  2.00000E+02   75.000  0.0000E+00  5.3542E-01  2.4178E-11  4.9929E-05