Title="TOUGHREACT V4.13omp : Gas Species Concentrations: Mole fraction"
Variables= "X(m)"   "Y(m)"   "Z(m)"     "P(bar)"       "T(C)"     "SatGas"    "FugCoef"       "Conc"       "co2(g)"
Zone T= "0.00000000E+00 sec" I=    6794 J=       1 K=       1 F=Point
  0.00000000000E+00  0.00000000000E+00  0.00000000000E+00  2.00000E+02   75.000  0.0000E+00  5.2556E-01  2.4178E-11  1.9359E-12
  3.19176920000E+05  5.10094703000E+06  4.39190000000E+02  2.21475E+01   16.159  0.0000E+00  8.8458E-01  1.6228E-12  1.7482E-11
  3.19476920000E+05  5.10094703000E+06  4.38290000000E+02  3.18674E+01   16.186  0.0000E+00  8.3463E-01  3.9206E-12  1.2150E-11
  3.19576920000E+05  5.10094703000E+06  4.46560000000E+02  9.60879E+00   15.938  0.0000E+00  9.4941E-01  9.8565E-14  4.0294E-11
  3.19676920000E+05  5.10094703000E+06  4.59840000000E+02  4.89896E+00   15.539  0.0000E+00  9.7401E-01  1.7660E-14  7.9033E-11
  3.19776920000E+05  5.10094703000E+06  4.70810000000E+02  2.87570E+00   15.210  0.0000E+00  9.8467E-01  8.1815E-15  1.3464E-10
  3.19876920000E+05  5.10094703000E+06  4.75190000000E+02  2.12484E+00   15.079  0.0000E+00  9.8865E-01  6.4490E-15  1.8222E-10
  3.19976920000E+05  5.10094703000E+06  4.75930000000E+02  1.96309E+00   15.056  0.0000E+00  9.8951E-01  6.2151E-15  1.9723E-10
  3.20076920000E+05  5.10094703000E+06  4.73770000000E+02  2.25408E+00   15.121  0.0000E+00  9.8796E-01  6.9489E-15  1.7177E-10
  3.20176920000E+05  5.10094703000E+06  4.71320000000E+02  2.72347E+00   15.195  0.0000E+00  9.8547E-01  7.9480E-15  1.4216E-10
  3.20276920000E+05  5.10094703000E+06  4.63060000000E+02  4.17096E+00   15.443  0.0000E+00  9.7784E-01  1.3625E-14  9.2828E-11
  3.20376920000E+05  5.10094703000E+06  4.55410000000E+02  6.19937E+00   15.672  0.0000E+00  9.6719E-01  2.6899E-14  6.2455E-11
  3.20476920000E+05  5.10094703000E+06  4.48440000000E+02  9.06092E+00   15.881  0.0000E+00  9.5225E-01  6.9268E-14  4.2731E-11
  3.18876920000E+05  5.10084703000E+06  4.43090000000E+02  1.12387E+01   16.042  0.0000E+00  9.4097E-01  2.3621E-13  3.4451E-11
  3.18976920000E+05  5.10084703000E+06  4.49760000000E+02  7.63209E+00   15.841  0.0000E+00  9.5972E-01  5.5337E-14  5.0731E-11
  3.19076920000E+05  5.10084703000E+06  4.54770000000E+02  6.54922E+00   15.691  0.0000E+00  9.6535E-01  1.1078E-03  5.9119E-11
  3.19176920000E+05  5.10084703000E+06  4.50150000000E+02  8.39017E+00   15.830  0.0000E+00  9.5574E-01  5.2313E-14  4.6147E-11
  3.19276920000E+05  5.10084703000E+06  4.44650000000E+02  1.03464E+01   15.995  0.0000E+00  9.4559E-01  1.5081E-13  3.7422E-11
  3.19376920000E+05  5.10084703000E+06  4.48080000000E+02  9.08103E+00   15.892  0.0000E+00  9.5215E-01  7.2750E-14  4.2636E-11
  3.19476920000E+05  5.10084703000E+06  4.45890000000E+02  1.06910E+01   15.958  0.0000E+00  9.4377E-01  1.1316E-13  3.6216E-11
  3.19576920000E+05  5.10084703000E+06  4.48310000000E+02  8.47771E+00   15.885  0.0000E+00  9.5531E-01  7.0118E-14  4.5670E-11
  3.19676920000E+05  5.10084703000E+06  4.60970000000E+02  4.68378E+00   15.505  0.0000E+00  9.7514E-01  1.6050E-14  8.2664E-11
  3.19776920000E+05  5.10084703000E+06  4.65650000000E+02  3.49636E+00   15.365  0.0000E+00  9.8140E-01  1.1323E-14  1.1074E-10
  3.19876920000E+05  5.10084703000E+06  4.69810000000E+02  2.75735E+00   15.240  0.0000E+00  9.8530E-01  8.6876E-15  1.4042E-10
  3.19976920000E+05  5.10084703000E+06  4.71130000000E+02  2.54175E+00   15.200  0.0000E+00  9.8644E-01  8.0405E-15  1.5233E-10
  3.20076920000E+05  5.10084703000E+06  4.67820000000E+02  3.00394E+00   15.300  0.0000E+00  9.8400E-01  9.8200E-15  1.2889E-10
  3.20176920000E+05  5.10084703000E+06  4.64380000000E+02  3.67676E+00   15.403  0.0000E+00  9.8045E-01  1.2386E-14  1.0530E-10
  3.20276920000E+05  5.10084703000E+06  4.58600000000E+02  5.11342E+00   15.576  0.0000E+00  9.7289E-01  1.9707E-14  7.5719E-11
  3.20376920000E+05  5.10084703000E+06  4.47250000000E+02  9.44311E+00   15.917  0.0000E+00  9.5027E-01  8.5704E-14  4.1001E-11
  3.20476920000E+05  5.10084703000E+06  4.38570000000E+02  2.97065E+01   16.177  0.0000E+00  8.4573E-01  2.8296E-12  1.3034E-11
  3.19476920000E+05  5.10114703000E+06  4.54810000000E+02  6.78056E+00   15.690  0.0000E+00  9.6413E-01  2.8757E-14  5.7102E-11
  3.19576920000E+05  5.10114703000E+06  4.45750000000E+02  9.12209E+00   15.962  0.0000E+00  9.5197E-01  1.1639E-13  4.2444E-11
  3.19676920000E+05  5.10114703000E+06  4.55380000000E+02  5.77462E+00   15.673  0.0000E+00  9.6943E-01  2.7071E-14  6.7049E-11
  3.19776920000E+05  5.10114703000E+06  4.60980000000E+02  4.37637E+00   15.505  0.0000E+00  9.7676E-01  1.6062E-14  8.8471E-11
  3.19876920000E+05  5.10114703000E+06  4.61810000000E+02  3.99325E+00   15.480  0.0000E+00  9.7879E-01  1.5031E-14  9.6959E-11
  3.19976920000E+05  5.10114703000E+06  4.76190000000E+02  2.05570E+00   15.049  0.0000E+00  9.8901E-01  6.1300E-15  1.8835E-10
  3.20076920000E+05  5.10114703000E+06  4.73270000000E+02  2.36758E+00   15.136  0.0000E+00  9.8736E-01  7.1343E-15  1.6353E-10
  3.20176920000E+05  5.10114703000E+06  4.65160000000E+02  3.48664E+00   15.380  0.0000E+00  9.8145E-01  1.1718E-14  1.1105E-10
  3.20276920000E+05  5.10114703000E+06  4.61060000000E+02  4.28773E+00   15.502  0.0000E+00  9.7723E-01  1.5962E-14  9.0300E-11
  3.20376920000E+05  5.10114703000E+06  4.62660000000E+02  4.41855E+00   15.454  0.0000E+00  9.7653E-01  1.4034E-14  8.7626E-11
  3.20476920000E+05  5.10114703000E+06  4.50740000000E+02  6.62992E+00   15.812  0.0000E+00  9.6497E-01  4.8021E-14  5.8399E-11
  3.19576920000E+05  5.10104703000E+06  4.46760000000E+02  8.79978E+00   15.931  0.0000E+00  9.5364E-01  9.3735E-14  4.3999E-11
  3.19676920000E+05  5.10104703000E+06  4.61370000000E+02  4.67216E+00   15.493  0.0000E+00  9.7520E-01  1.5535E-14  8.2870E-11
  3.19776920000E+05  5.10104703000E+06  4.68220000000E+02  3.23672E+00   15.288  0.0000E+00  9.8276E-01  9.5676E-15  1.1962E-10
  3.19876920000E+05  5.10104703000E+06  4.73870000000E+02  2.32734E+00   15.118  0.0000E+00  9.8757E-01  6.9094E-15  1.6636E-10
  3.19976920000E+05  5.10104703000E+06  4.77810000000E+02  1.76661E+00   15.000  0.0000E+00  9.9055E-01  5.6653E-15  2.1917E-10
  3.20076920000E+05  5.10104703000E+06  4.75430000000E+02  2.05238E+00   15.071  0.0000E+00  9.8903E-01  6.3735E-15  1.8865E-10
  3.20176920000E+05  5.10104703000E+06  4.70550000000E+02  2.76386E+00   15.218  0.0000E+00  9.8526E-01  8.3117E-15  1.4009E-10
  3.20276920000E+05  5.10104703000E+06  4.64680000000E+02  3.77443E+00   15.394  0.0000E+00  9.7993E-01  1.2115E-14  1.0258E-10
  3.20376920000E+05  5.10104703000E+06  4.60210000000E+02  4.81280E+00   15.528  0.0000E+00  9.7446E-01  1.7101E-14  8.0448E-11
  3.20476920000E+05  5.10104703000E+06  4.53700000000E+02  6.40224E+00   15.723  0.0000E+00  9.6614E-01  3.2622E-14  6.0476E-11
  3.19576920000E+05  5.10134703000E+06  4.39200000000E+02  2.08701E+01   16.158  0.0000E+00  8.9117E-01  1.6129E-12  1.8552E-11
  3.19676920000E+05  5.10134703000E+06  4.45220000000E+02  8.48540E+00   15.978  0.0000E+00  9.5531E-01  1.3263E-13  4.5629E-11
  3.19776920000E+05  5.10134703000E+06  4.52450000000E+02  5.46261E+00   15.761  0.0000E+00  9.7110E-01  3.8270E-14  7.0878E-11
  3.19876920000E+05  5.10134703000E+06  4.51610000000E+02  5.28379E+00   15.786  0.0000E+00  9.7205E-01  4.2826E-14  7.3277E-11
  3.19976920000E+05  5.10134703000E+06  4.51350000000E+02  5.09580E+00   15.794  0.0000E+00  9.7304E-01  4.4423E-14  7.5980E-11
  3.20076920000E+05  5.10134703000E+06  4.55210000000E+02  4.33367E+00   15.678  0.0000E+00  9.7703E-01  2.7749E-14  8.9342E-11
  3.20176920000E+05  5.10134703000E+06  4.54660000000E+02  4.75550E+00   15.694  0.0000E+00  9.7481E-01  2.9435E-14  8.1417E-11
  3.20276920000E+05  5.10134703000E+06  4.49710000000E+02  6.98689E+00   15.843  0.0000E+00  9.6311E-01  5.6703E-14  5.5415E-11
  3.20376920000E+05  5.10134703000E+06  4.38650000000E+02  2.53683E+01   16.175  0.0000E+00  8.6803E-01  2.6501E-12  1.5262E-11
  3.19476920000E+05  5.10124703000E+06  4.40940000000E+02  1.45501E+01   16.106  0.0000E+00  9.2379E-01  5.4710E-13  2.6610E-11
  3.19576920000E+05  5.10124703000E+06  4.45900000000E+02  9.96544E+00   15.957  0.0000E+00  9.4756E-01  1.1235E-13  3.8852E-11
  3.19676920000E+05  5.10124703000E+06  4.50710000000E+02  7.06839E+00   15.813  0.0000E+00  9.6267E-01  4.8174E-14  5.4776E-11
  3.19776920000E+05  5.10124703000E+06  4.54390000000E+02  5.64087E+00   15.703  0.0000E+00  9.7014E-01  3.0213E-14  6.8638E-11
  3.19876920000E+05  5.10124703000E+06  4.48640000000E+02  6.55916E+00   15.875  0.0000E+00  9.6537E-01  6.6809E-14  5.9029E-11
  3.19976920000E+05  5.10124703000E+06  4.61770000000E+02  3.95245E+00   15.481  0.0000E+00  9.7900E-01  1.5083E-14  9.7960E-11
  3.20076920000E+05  5.10124703000E+06  4.61510000000E+02  3.89557E+00   15.489  0.0000E+00  9.7930E-01  1.5409E-14  9.9390E-11
  3.20176920000E+05  5.10124703000E+06  4.56970000000E+02  4.73104E+00   15.625  0.0000E+00  9.7492E-01  2.3064E-14  8.1838E-11
  3.20276920000E+05  5.10124703000E+06  4.56220000000E+02  5.30241E+00   15.648  0.0000E+00  9.7191E-01  2.4818E-14  7.3020E-11
  3.20376920000E+05  5.10124703000E+06  4.57870000000E+02  5.55938E+00   15.598  0.0000E+00  9.7054E-01  2.1511E-14  6.9644E-11
  3.19776920000E+05  5.10154703000E+06  4.46590000000E+02  1.71795E+00   15.937  0.0000E+00  9.9090E-01  6.0738E-14  2.2537E-10
  3.19876920000E+05  5.10154703000E+06  4.48840000000E+02  1.49671E+00   15.869  0.0000E+00  9.9207E-01  3.9846E-14  2.5869E-10
  3.19976920000E+05  5.10154703000E+06  4.46150000000E+02  1.78627E+00   15.950  0.0000E+00  9.9054E-01  6.6294E-14  2.1675E-10
  3.20076920000E+05  5.10154703000E+06  4.45730000000E+02  1.83085E+00   15.962  0.0000E+00  9.9031E-01  7.2947E-14  2.1148E-10
  3.20176920000E+05  5.10154703000E+06  4.41520000000E+02  2.27645E+00   16.089  0.0000E+00  9.8797E-01  2.6774E-13  1.7008E-10
  3.19776920000E+05  5.10164703000E+06  4.39560000000E+02  1.31947E+01   16.148  0.0000E+00  9.3086E-01  1.2571E-12  2.9344E-11
  3.19676920000E+05  5.10144703000E+06  4.45210000000E+02  1.94045E+00   15.978  0.0000E+00  9.8973E-01  8.2314E-14  1.9953E-10
  3.19776920000E+05  5.10144703000E+06  4.45990000000E+02  1.87098E+00   15.955  0.0000E+00  9.9009E-01  6.8786E-14  2.0694E-10
  3.19876920000E+05  5.10144703000E+06  4.48860000000E+02  1.57486E+00   15.868  0.0000E+00  9.9165E-01  3.9651E-14  2.4585E-10
  3.19976920000E+05  5.10144703000E+06  4.48990000000E+02  1.56734E+00   15.865  0.0000E+00  9.9169E-01  3.8834E-14  2.4703E-10
  3.20076920000E+05  5.10144703000E+06  4.51550000000E+02  1.29457E+00   15.788  0.0000E+00  9.9313E-01  2.6433E-14  2.9908E-10
  3.20176920000E+05  5.10144703000E+06  4.47940000000E+02  1.66721E+00   15.896  0.0000E+00  9.9117E-01  4.6537E-14  2.3223E-10
  3.19876920000E+05  5.10164703000E+06  4.46440000000E+02  5.08434E+00   15.941  0.0000E+00  9.7314E-01  1.0226E-13  7.6152E-11
  3.19976920000E+05  5.10164703000E+06  4.47500000000E+02  4.73009E+00   15.909  0.0000E+00  9.7500E-01  8.2766E-14  8.1855E-11
  3.20076920000E+05  5.10164703000E+06  4.41230000000E+02  8.94047E+00   16.097  0.0000E+00  9.5299E-01  4.8902E-13  4.3306E-11
  3.20076920000E+05  5.10244703000E+06  4.41490000000E+02  1.52183E+01   16.090  0.0000E+00  9.2032E-01  4.2224E-13  2.5442E-11
  3.20176920000E+05  5.10244703000E+06  4.40510000000E+02  1.73351E+01   16.119  0.0000E+00  9.0938E-01  6.7167E-13  2.2335E-11
  3.20376920000E+05  5.10244703000E+06  4.38520000000E+02  2.95178E+01   16.179  0.0000E+00  8.4670E-01  2.9976E-12  1.3117E-11
  3.20476920000E+05  5.10244703000E+06  4.43540000000E+02  1.31973E+01   16.028  0.0000E+00  9.3076E-01  2.0400E-13  2.9338E-11
  3.19676920000E+05  5.10264703000E+06  4.44560000000E+02  9.73988E+00   15.998  0.0000E+00  9.4876E-01  1.5509E-13  3.9752E-11
  3.20176920000E+05  5.10264703000E+06  4.41160000000E+02  1.57632E+01   16.099  0.0000E+00  9.1750E-01  4.8647E-13  2.4562E-11
  3.20276920000E+05  5.10264703000E+06  4.41550000000E+02  1.54097E+01   16.088  0.0000E+00  9.1932E-01  4.0989E-13  2.5126E-11
  3.20376920000E+05  5.10264703000E+06  4.44350000000E+02  1.18191E+01   16.004  0.0000E+00  9.3792E-01  1.6233E-13  3.2759E-11
  3.20476920000E+05  5.10264703000E+06  4.46540000000E+02  1.00548E+01   15.938  0.0000E+00  9.4708E-01  9.7458E-14  3.8507E-11
  3.20076920000E+05  5.10254703000E+06  4.39780000000E+02  1.96840E+01   16.141  0.0000E+00  8.9727E-01  1.0428E-12  1.9670E-11
  3.20176920000E+05  5.10254703000E+06  4.41960000000E+02  1.55121E+01   16.076  0.0000E+00  9.1878E-01  3.4600E-13  2.4960E-11
  3.20276920000E+05  5.10254703000E+06  4.40400000000E+02  1.80911E+01   16.122  0.0000E+00  9.0547E-01  7.1156E-13  2.1402E-11
  3.20376920000E+05  5.10254703000E+06  4.42280000000E+02  1.49127E+01   16.066  0.0000E+00  9.2188E-01  3.0807E-13  2.5963E-11
  3.20476920000E+05  5.10254703000E+06  4.44500000000E+02  1.18851E+01   15.999  0.0000E+00  9.3757E-01  1.5543E-13  3.2577E-11
  3.20376920000E+05  5.10284703000E+06  4.47610000000E+02  8.77402E+00   15.906  0.0000E+00  9.5377E-01  7.9411E-14  4.4128E-11
  3.20476920000E+05  5.10284703000E+06  4.48160000000E+02  8.43082E+00   15.889  0.0000E+00  9.5555E-01  7.1948E-14  4.5924E-11
  3.19576920000E+05  5.10274703000E+06  4.40720000000E+02  1.58146E+01   16.113  0.0000E+00  9.1724E-01  6.0641E-13  2.4483E-11
  3.20276920000E+05  5.10274703000E+06  4.41140000000E+02  1.51192E+01   16.100  0.0000E+00  9.2084E-01  4.9275E-13  2.5609E-11
  3.20376920000E+05  5.10274703000E+06  4.47520000000E+02  9.52581E+00   15.909  0.0000E+00  9.4983E-01  8.0490E-14  4.0645E-11
  3.20476920000E+05  5.10274703000E+06  4.47600000000E+02  9.01767E+00   15.906  0.0000E+00  9.5249E-01  7.9535E-14  4.2936E-11
  3.20376920000E+05  5.10294703000E+06  4.46110000000E+02  9.18040E+00   15.951  0.0000E+00  9.5166E-01  1.0739E-13  4.2175E-11
  3.20476920000E+05  5.10294703000E+06  4.48860000000E+02  8.01664E+00   15.868  0.0000E+00  9.5772E-01  6.3945E-14  4.8297E-11
  3.18676920000E+05  5.10094703000E+06  3.52010000000E+02  1.58328E+01   18.774  0.0000E+00  9.1945E-01  3.8400E-14  2.4454E-11
  3.18776920000E+05  5.10094703000E+06  3.71720000000E+02  1.27128E+01   18.183  0.0000E+00  9.3478E-01  7.3864E-15  3.0456E-11
  3.18876920000E+05  5.10094703000E+06  3.71530000000E+02  1.27960E+01   18.188  0.0000E+00  9.3436E-01  7.4560E-15  3.0258E-11
  3.18976920000E+05  5.10094703000E+06  3.75580000000E+02  1.23521E+01   18.067  0.0000E+00  9.3654E-01  6.0020E-15  3.1345E-11
  3.19076920000E+05  5.10094703000E+06  3.84600000000E+02  1.21156E+01   17.796  0.0000E+00  9.3757E-01  3.9686E-15  3.1957E-11
  3.19176920000E+05  5.10094703000E+06  3.87000000000E+02  1.54947E+01   17.724  0.0000E+00  9.2027E-01  4.7330E-15  2.4988E-11
  3.19276920000E+05  5.10094703000E+06  3.85050000000E+02  1.24636E+01   17.783  0.0000E+00  9.3578E-01  3.8875E-15  3.1065E-11
  3.19376920000E+05  5.10094703000E+06  3.83660000000E+02  1.30301E+01   17.825  0.0000E+00  9.3292E-01  4.1176E-15  2.9714E-11
  3.19476920000E+05  5.10094703000E+06  3.87000000000E+02  1.82676E+01   17.724  0.0000E+00  9.0617E-01  1.8385E-14  2.1195E-11
  3.19576920000E+05  5.10094703000E+06  3.87000000000E+02  1.31197E+01   17.724  0.0000E+00  9.3239E-01  6.8316E-17  2.9511E-11
  3.19676920000E+05  5.10094703000E+06  3.87000000000E+02  1.12184E+01   17.724  0.0000E+00  9.4211E-01  3.9105E-18  3.4513E-11
  3.19776920000E+05  5.10094703000E+06  3.87000000000E+02  1.05642E+01   17.724  0.0000E+00  9.4546E-01  1.2926E-18  3.6650E-11
  3.19876920000E+05  5.10094703000E+06  3.87000000000E+02  1.03299E+01   17.724  0.0000E+00  9.4666E-01  9.1369E-19  3.7481E-11
  3.19976920000E+05  5.10094703000E+06  3.87000000000E+02  1.02606E+01   17.724  0.0000E+00  9.4702E-01  8.5960E-19  3.7735E-11
  3.20076920000E+05  5.10094703000E+06  3.87000000000E+02  1.03037E+01   17.724  0.0000E+00  9.4680E-01  1.0079E-18  3.7577E-11
  3.20176920000E+05  5.10094703000E+06  3.87000000000E+02  1.04705E+01   17.724  0.0000E+00  9.4594E-01  1.2417E-18  3.6978E-11
  3.20276920000E+05  5.10094703000E+06  3.87000000000E+02  1.08918E+01   17.724  0.0000E+00  9.4378E-01  2.7305E-18  3.5548E-11
  3.20376920000E+05  5.10094703000E+06  3.87000000000E+02  1.17937E+01   17.724  0.0000E+00  9.3917E-01  7.6256E-18  3.2829E-11
  3.20476920000E+05  5.10094703000E+06  3.87000000000E+02  1.33210E+01   17.724  0.0000E+00  9.3136E-01  3.8990E-17  2.9065E-11
  3.18576920000E+05  5.10084703000E+06  3.45140000000E+02  1.82919E+01   18.980  0.0000E+00  9.0728E-01  1.2782E-13  2.1167E-11
  3.18676920000E+05  5.10084703000E+06  3.67510000000E+02  1.33759E+01   18.309  0.0000E+00  9.3150E-01  9.5169E-15  2.8946E-11
  3.18776920000E+05  5.10084703000E+06  3.84940000000E+02  1.13935E+01   17.786  0.0000E+00  9.4125E-01  3.9262E-15  3.3982E-11
  3.18876920000E+05  5.10084703000E+06  3.87000000000E+02  1.24947E+01   17.724  0.0000E+00  9.3558E-01  2.4231E-16  3.0987E-11
  3.18976920000E+05  5.10084703000E+06  3.87000000000E+02  1.18166E+01   17.724  0.0000E+00  9.3905E-01  2.6102E-17  3.2766E-11
  3.19076920000E+05  5.10084703000E+06  3.87000000000E+02  1.17871E+01   17.724  0.0000E+00  9.3920E-01  3.7489E-07  3.2848E-11
  3.19176920000E+05  5.10084703000E+06  3.87000000000E+02  1.27320E+01   17.724  0.0000E+00  9.3437E-01  2.4999E-17  3.0410E-11
  3.19276920000E+05  5.10084703000E+06  3.87000000000E+02  1.27825E+01   17.724  0.0000E+00  9.3411E-01  1.1722E-16  3.0290E-11
  3.19376920000E+05  5.10084703000E+06  3.87000000000E+02  1.27489E+01   17.724  0.0000E+00  9.3428E-01  4.0325E-17  3.0370E-11
  3.19476920000E+05  5.10084703000E+06  3.87000000000E+02  1.37757E+01   17.724  0.0000E+00  9.2904E-01  8.4320E-17  2.8106E-11
  3.19576920000E+05  5.10084703000E+06  3.87000000000E+02  1.23961E+01   17.724  0.0000E+00  9.3608E-01  3.5500E-17  3.1234E-11
  3.19676920000E+05  5.10084703000E+06  3.87000000000E+02  1.11096E+01   17.724  0.0000E+00  9.4267E-01  3.5205E-18  3.4851E-11
  3.19776920000E+05  5.10084703000E+06  3.87000000000E+02  1.05725E+01   17.724  0.0000E+00  9.4542E-01  2.0418E-18  3.6622E-11
  3.19876920000E+05  5.10084703000E+06  3.87000000000E+02  1.03520E+01   17.724  0.0000E+00  9.4655E-01  1.3761E-18  3.7401E-11
  3.19976920000E+05  5.10084703000E+06  3.87000000000E+02  1.02939E+01   17.724  0.0000E+00  9.4685E-01  1.2303E-18  3.7612E-11
  3.20076920000E+05  5.10084703000E+06  3.87000000000E+02  1.03646E+01   17.724  0.0000E+00  9.4648E-01  1.6350E-18  3.7356E-11
  3.20176920000E+05  5.10084703000E+06  3.87000000000E+02  1.05992E+01   17.724  0.0000E+00  9.4528E-01  2.3116E-18  3.6529E-11
  3.20276920000E+05  5.10084703000E+06  3.87000000000E+02  1.12685E+01   17.724  0.0000E+00  9.4185E-01  4.5549E-18  3.4359E-11
  3.20376920000E+05  5.10084703000E+06  3.87000000000E+02  1.33399E+01   17.724  0.0000E+00  9.3126E-01  5.1174E-17  2.9024E-11
  3.20476920000E+05  5.10084703000E+06  3.87000000000E+02  1.94266E+01   17.724  0.0000E+00  9.0028E-01  1.0863E-14  1.9930E-11
  3.19076920000E+05  5.10114703000E+06  3.52980000000E+02  1.52067E+01   18.745  0.0000E+00  9.2258E-01  3.4005E-14  2.5461E-11
  3.19176920000E+05  5.10114703000E+06  3.64600000000E+02  1.34734E+01   18.396  0.0000E+00  9.3107E-01  1.1594E-14  2.8737E-11
  3.19276920000E+05  5.10114703000E+06  3.66940000000E+02  1.30450E+01   18.326  0.0000E+00  9.3319E-01  9.8833E-15  2.9680E-11
  3.19376920000E+05  5.10114703000E+06  3.75440000000E+02  1.22867E+01   18.071  0.0000E+00  9.3688E-01  6.0458E-15  3.1512E-11
  3.19476920000E+05  5.10114703000E+06  3.87000000000E+02  1.19959E+01   17.724  0.0000E+00  9.3813E-01  1.0285E-17  3.2276E-11
  3.19576920000E+05  5.10114703000E+06  3.87000000000E+02  1.22050E+01   17.724  0.0000E+00  9.3706E-01  7.5576E-17  3.1723E-11
  3.19676920000E+05  5.10114703000E+06  3.87000000000E+02  1.12692E+01   17.724  0.0000E+00  9.4185E-01  8.1386E-18  3.4357E-11
  3.19776920000E+05  5.10114703000E+06  3.87000000000E+02  1.07571E+01   17.724  0.0000E+00  9.4447E-01  3.6394E-18  3.5993E-11
  3.19876920000E+05  5.10114703000E+06  3.87000000000E+02  1.05427E+01   17.724  0.0000E+00  9.4557E-01  3.1665E-18  3.6725E-11
  3.19976920000E+05  5.10114703000E+06  3.87000000000E+02  1.03293E+01   17.724  0.0000E+00  9.4666E-01  8.8832E-19  3.7484E-11
  3.20076920000E+05  5.10114703000E+06  3.87000000000E+02  1.03214E+01   17.724  0.0000E+00  9.4670E-01  1.0853E-18  3.7512E-11
  3.20176920000E+05  5.10114703000E+06  3.87000000000E+02  1.04697E+01   17.724  0.0000E+00  9.4594E-01  2.2036E-18  3.6981E-11
  3.20276920000E+05  5.10114703000E+06  3.87000000000E+02  1.07108E+01   17.724  0.0000E+00  9.4471E-01  3.5222E-18  3.6149E-11
  3.20376920000E+05  5.10114703000E+06  3.87000000000E+02  1.09892E+01   17.724  0.0000E+00  9.4328E-01  3.0750E-18  3.5233E-11
  3.20476920000E+05  5.10114703000E+06  3.87000000000E+02  1.12458E+01   17.724  0.0000E+00  9.4197E-01  1.9197E-17  3.4429E-11
  3.18676920000E+05  5.10104703000E+06  3.42570000000E+02  2.03352E+01   19.057  0.0000E+00  8.9713E-01  2.6750E-13  1.9040E-11
  3.18776920000E+05  5.10104703000E+06  3.58820000000E+02  1.45070E+01   18.570  0.0000E+00  9.2597E-01  1.8404E-14  2.6689E-11
  3.18876920000E+05  5.10104703000E+06  3.61100000000E+02  1.39043E+01   18.501  0.0000E+00  9.2897E-01  1.5140E-14  2.7846E-11
  3.18976920000E+05  5.10104703000E+06  3.63970000000E+02  1.34822E+01   18.415  0.0000E+00  9.3104E-01  1.2132E-14  2.8718E-11
  3.19076920000E+05  5.10104703000E+06  3.63810000000E+02  1.37187E+01   18.420  0.0000E+00  9.2985E-01  1.2256E-14  2.8223E-11
  3.19176920000E+05  5.10104703000E+06  3.71100000000E+02  1.33819E+01   18.201  0.0000E+00  9.3139E-01  7.6242E-15  2.8933E-11
  3.19276920000E+05  5.10104703000E+06  3.76320000000E+02  1.23483E+01   18.045  0.0000E+00  9.3654E-01  5.7812E-15  3.1355E-11
  3.19376920000E+05  5.10104703000E+06  3.79290000000E+02  1.22409E+01   17.956  0.0000E+00  9.3703E-01  5.0072E-15  3.1630E-11
  3.19476920000E+05  5.10104703000E+06  3.86250000000E+02  1.26387E+01   17.747  0.0000E+00  9.3486E-01  3.7109E-15  3.0635E-11
  3.19576920000E+05  5.10104703000E+06  3.87000000000E+02  1.22456E+01   17.724  0.0000E+00  9.3685E-01  5.4931E-17  3.1618E-11
  3.19676920000E+05  5.10104703000E+06  3.87000000000E+02  1.11158E+01   17.724  0.0000E+00  9.4264E-01  3.4525E-18  3.4832E-11
  3.19776920000E+05  5.10104703000E+06  3.87000000000E+02  1.05971E+01   17.724  0.0000E+00  9.4529E-01  1.6443E-18  3.6537E-11
  3.19876920000E+05  5.10104703000E+06  3.87000000000E+02  1.03697E+01   17.724  0.0000E+00  9.4646E-01  1.0181E-18  3.7338E-11
  3.19976920000E+05  5.10104703000E+06  3.87000000000E+02  1.02645E+01   17.724  0.0000E+00  9.4700E-01  7.6386E-19  3.7720E-11
  3.20076920000E+05  5.10104703000E+06  3.87000000000E+02  1.02842E+01   17.724  0.0000E+00  9.4690E-01  8.9849E-19  3.7648E-11
  3.20176920000E+05  5.10104703000E+06  3.87000000000E+02  1.04177E+01   17.724  0.0000E+00  9.4621E-01  1.3264E-18  3.7166E-11
  3.20276920000E+05  5.10104703000E+06  3.87000000000E+02  1.06810E+01   17.724  0.0000E+00  9.4486E-01  2.3419E-18  3.6249E-11
  3.20376920000E+05  5.10104703000E+06  3.87000000000E+02  1.10883E+01   17.724  0.0000E+00  9.4278E-01  3.9893E-18  3.4918E-11
  3.20476920000E+05  5.10104703000E+06  3.87000000000E+02  1.16064E+01   17.724  0.0000E+00  9.4012E-01  1.0759E-17  3.3359E-11
  3.19276920000E+05  5.10134703000E+06  3.61570000000E+02  1.31703E+01   18.487  0.0000E+00  9.3267E-01  1.4621E-14  2.9398E-11
  3.19376920000E+05  5.10134703000E+06  3.68420000000E+02  1.23038E+01   18.282  0.0000E+00  9.3693E-01  9.0161E-15  3.1468E-11
  3.19476920000E+05  5.10134703000E+06  3.81250000000E+02  1.18407E+01   17.897  0.0000E+00  9.3904E-01  4.5871E-15  3.2699E-11
  3.19576920000E+05  5.10134703000E+06  3.87000000000E+02  1.43979E+01   17.724  0.0000E+00  9.2586E-01  4.6328E-15  2.6891E-11
  3.19676920000E+05  5.10134703000E+06  3.87000000000E+02  1.14824E+01   17.724  0.0000E+00  9.4076E-01  8.9524E-17  3.3719E-11
  3.19776920000E+05  5.10134703000E+06  3.87000000000E+02  1.04215E+01   17.724  0.0000E+00  9.4619E-01  1.3702E-17  3.7152E-11
  3.19876920000E+05  5.10134703000E+06  3.87000000000E+02  1.01868E+01   17.724  0.0000E+00  9.4739E-01  1.5265E-17  3.8008E-11
  3.19976920000E+05  5.10134703000E+06  3.87000000000E+02  1.00458E+01   17.724  0.0000E+00  9.4812E-01  1.5265E-17  3.8542E-11
  3.20076920000E+05  5.10134703000E+06  3.87000000000E+02  9.96114E+00   17.724  0.0000E+00  9.4855E-01  7.5986E-18  3.8869E-11
  3.20176920000E+05  5.10134703000E+06  3.87000000000E+02  1.01967E+01   17.724  0.0000E+00  9.4734E-01  8.8239E-18  3.7971E-11
  3.20276920000E+05  5.10134703000E+06  3.87000000000E+02  1.12346E+01   17.724  0.0000E+00  9.4203E-01  3.1318E-17  3.4463E-11
  3.20376920000E+05  5.10134703000E+06  3.87000000000E+02  1.53680E+01   17.724  0.0000E+00  9.2092E-01  9.9712E-15  2.5194E-11
  3.20476920000E+05  5.10134703000E+06  3.79960000000E+02  1.17611E+01   17.936  0.0000E+00  9.3947E-01  4.8704E-15  3.2920E-11
  3.19276920000E+05  5.10144703000E+06  3.47120000000E+02  1.23902E+01   18.921  0.0000E+00  9.3691E-01  5.1473E-14  3.1249E-11
  3.19376920000E+05  5.10144703000E+06  3.62540000000E+02  1.04570E+01   18.458  0.0000E+00  9.4643E-01  8.2871E-15  3.7026E-11
  3.19176920000E+05  5.10124703000E+06  3.59440000000E+02  1.39566E+01   18.551  0.0000E+00  9.2874E-01  1.7441E-14  2.7742E-11
  3.19276920000E+05  5.10124703000E+06  3.64460000000E+02  1.32180E+01   18.401  0.0000E+00  9.3237E-01  1.1726E-14  2.9292E-11
  3.19376920000E+05  5.10124703000E+06  3.73770000000E+02  1.24928E+01   18.121  0.0000E+00  9.3586E-01  6.5951E-15  3.0992E-11
  3.19476920000E+05  5.10124703000E+06  3.87000000000E+02  1.33605E+01   17.724  0.0000E+00  9.3116E-01  8.6665E-16  2.8979E-11
  3.19576920000E+05  5.10124703000E+06  3.87000000000E+02  1.28134E+01   17.724  0.0000E+00  9.3395E-01  7.9715E-17  3.0217E-11
  3.19676920000E+05  5.10124703000E+06  3.87000000000E+02  1.15660E+01   17.724  0.0000E+00  9.4033E-01  2.0354E-17  3.3476E-11
  3.19776920000E+05  5.10124703000E+06  3.87000000000E+02  1.09178E+01   17.724  0.0000E+00  9.4365E-01  9.8474E-18  3.5463E-11
  3.19876920000E+05  5.10124703000E+06  3.87000000000E+02  1.08066E+01   17.724  0.0000E+00  9.4422E-01  2.9659E-17  3.5828E-11
  3.19976920000E+05  5.10124703000E+06  3.87000000000E+02  1.04229E+01   17.724  0.0000E+00  9.4618E-01  3.3646E-18  3.7147E-11
  3.20076920000E+05  5.10124703000E+06  3.87000000000E+02  1.03683E+01   17.724  0.0000E+00  9.4646E-01  3.3727E-18  3.7343E-11
  3.20176920000E+05  5.10124703000E+06  3.87000000000E+02  1.05594E+01   17.724  0.0000E+00  9.4549E-01  6.0801E-18  3.6667E-11
  3.20276920000E+05  5.10124703000E+06  3.87000000000E+02  1.09634E+01   17.724  0.0000E+00  9.4342E-01  7.0121E-18  3.5316E-11
  3.20376920000E+05  5.10124703000E+06  3.87000000000E+02  1.16210E+01   17.724  0.0000E+00  9.4005E-01  9.9304E-18  3.3317E-11
  3.20476920000E+05  5.10124703000E+06  3.86620000000E+02  1.09520E+01   17.736  0.0000E+00  9.4348E-01  3.6772E-15  3.5352E-11
  3.19676920000E+05  5.10154703000E+06  3.84990000000E+02  8.04449E+00   17.785  0.0000E+00  9.5842E-01  2.3887E-15  4.8130E-11
  3.19776920000E+05  5.10154703000E+06  3.87000000000E+02  7.89881E+00   17.724  0.0000E+00  9.5914E-01  4.3323E-17  4.9018E-11
  3.19876920000E+05  5.10154703000E+06  3.87000000000E+02  7.91656E+00   17.724  0.0000E+00  9.5905E-01  2.5476E-17  4.8908E-11
  3.19976920000E+05  5.10154703000E+06  3.87000000000E+02  7.92420E+00   17.724  0.0000E+00  9.5901E-01  4.5455E-17  4.8861E-11
  3.20076920000E+05  5.10154703000E+06  3.87000000000E+02  7.92267E+00   17.724  0.0000E+00  9.5902E-01  5.1866E-17  4.8870E-11
  3.20176920000E+05  5.10154703000E+06  3.87000000000E+02  7.90627E+00   17.724  0.0000E+00  9.5910E-01  2.8368E-16  4.8971E-11
  3.20276920000E+05  5.10154703000E+06  3.82060000000E+02  8.36177E+00   17.872  0.0000E+00  9.5683E-01  2.7037E-15  4.6304E-11
  3.20376920000E+05  5.10154703000E+06  3.75940000000E+02  8.96550E+00   18.056  0.0000E+00  9.5382E-01  3.5978E-15  4.3186E-11
  3.20476920000E+05  5.10154703000E+06  3.76000000000E+02  8.93970E+00   18.054  0.0000E+00  9.5395E-01  3.5887E-15  4.3310E-11
  3.19376920000E+05  5.10164703000E+06  3.53020000000E+02  1.10562E+01   18.744  0.0000E+00  9.4355E-01  2.0749E-14  3.5019E-11
  3.19476920000E+05  5.10164703000E+06  3.65860000000E+02  9.80082E+00   18.358  0.0000E+00  9.4971E-01  6.4892E-15  3.9505E-11
  3.19576920000E+05  5.10164703000E+06  3.72890000000E+02  9.13698E+00   18.148  0.0000E+00  9.5299E-01  4.2238E-15  4.2375E-11
  3.19676920000E+05  5.10164703000E+06  3.80200000000E+02  8.45277E+00   17.928  0.0000E+00  9.5639E-01  2.9378E-15  4.5805E-11
  3.19776920000E+05  5.10164703000E+06  3.87000000000E+02  7.84312E+00   17.724  0.0000E+00  9.5943E-01  1.9536E-15  4.9366E-11
  3.19476920000E+05  5.10144703000E+06  3.72640000000E+02  9.37886E+00   18.155  0.0000E+00  9.5176E-01  4.2793E-15  4.1282E-11
  3.19576920000E+05  5.10144703000E+06  3.82210000000E+02  8.42469E+00   17.868  0.0000E+00  9.5650E-01  2.6858E-15  4.5958E-11
  3.19676920000E+05  5.10144703000E+06  3.87000000000E+02  7.97964E+00   17.724  0.0000E+00  9.5873E-01  5.7186E-17  4.8521E-11
  3.19776920000E+05  5.10144703000E+06  3.87000000000E+02  8.00708E+00   17.724  0.0000E+00  9.5859E-01  3.3454E-17  4.8355E-11
  3.19876920000E+05  5.10144703000E+06  3.87000000000E+02  8.01842E+00   17.724  0.0000E+00  9.5853E-01  1.5304E-17  4.8286E-11
  3.19976920000E+05  5.10144703000E+06  3.87000000000E+02  8.02313E+00   17.724  0.0000E+00  9.5850E-01  1.5357E-17  4.8258E-11
  3.20076920000E+05  5.10144703000E+06  3.87000000000E+02  8.01872E+00   17.724  0.0000E+00  9.5853E-01  1.0077E-17  4.8285E-11
  3.20176920000E+05  5.10144703000E+06  3.87000000000E+02  8.00485E+00   17.724  0.0000E+00  9.5860E-01  2.3686E-17  4.8368E-11
  3.20276920000E+05  5.10144703000E+06  3.86750000000E+02  7.99056E+00   17.732  0.0000E+00  9.5867E-01  2.2271E-15  4.8455E-11