Title="TOUGHREACT V4.13omp : flowdata.tec: P,T,SAT & Other Variables"
Variables= "X(m)"     "Y(m)"      "Z(m)"       "P(Pa)"        "T(C)"      "SatGas"      "SatLiq"     "SatSalt"    "XNaClliq"     "XH2OGas"     "XCO2Liq"     "XH2OLiq"    "Pcap(Pa)"  "DGas_kg/m3"  "DLiq_kg/m3"    "Porosity"  "Perm_X(m2)"  "Perm_Y(m2)"  "Perm_Z(m2)"    "Krel_Gas"    "Krel_Liq"  "HGas(J/kg)"  "HLiq(J/kg)"  "VisGas_Pas"  "VisLiq_Pas"  "Cp(J/kg/C)"   "TC(W/m/C)"   "  K-red  "
Zone T= "1.00000000E+00 sec" I=    1120 J=       1 K=       1 F=Point
  5.00000000000E-01  0.00000000000E+00 -1.00000000000E+00   1.999728E+07  7.500000E+01  0.000000E+00  1.000000E+00  0.000000E+00  6.000000E-02  1.000000E+00  1.000000E-12  9.400000E-01  0.000000E+00  0.000000E+00  1.023699E+03  3.399981E-01  2.263961E-12  2.263961E-12  2.263961E-13  0.000000E+00  1.000000E+00  0.000000E+00  3.057925E+05  1.000000E+00  4.328202E-04  9.200000E+02  2.510000E+00  1.000000E+00
  5.00000000000E-01  0.00000000000E+00 -3.00000000000E+00   1.999968E+07  7.500000E+01  0.000000E+00  1.000000E+00  0.000000E+00  6.000000E-02  1.000000E+00  1.000000E-12  9.400000E-01  0.000000E+00  0.000000E+00  1.023700E+03  3.399998E-01  2.263996E-12  2.263996E-12  2.263996E-13  0.000000E+00  1.000000E+00  0.000000E+00  3.057944E+05  1.000000E+00  4.328209E-04  9.200000E+02  2.510000E+00  1.000000E+00
  5.00000000000E-01  0.00000000000E+00 -5.00000000000E+00   1.999996E+07  7.500000E+01  0.000000E+00  1.000000E+00  0.000000E+00  6.000000E-02  1.000000E+00  1.000000E-12  9.400000E-01  0.000000E+00  0.000000E+00  1.023701E+03  3.400000E-01  2.264000E-12  2.264000E-12  2.264000E-13  0.000000E+00  1.000000E+00  0.000000E+00  3.057947E+05  1.000000E+00  4.328210E-04  9.200000E+02  2.510000E+00  1.000000E+00
  5.00000000000E-01  0.00000000000E+00 -7.00000000000E+00   2.000000E+07  7.500000E+01  0.000000E+00  1.000000E+00  0.000000E+00  6.000000E-02  1.000000E+00  1.000000E-12  9.400000E-01  0.000000E+00  0.000000E+00  1.023701E+03  3.400000E-01  2.264000E-12  2.264000E-12  2.264000E-13  0.000000E+00  1.000000E+00  0.000000E+00  3.057947E+05  1.000000E+00  4.328210E-04  9.200000E+02  2.510000E+00  1.000000E+00
  5.00000000000E-01  0.00000000000E+00 -9.00000000000E+00   2.000000E+07  7.500000E+01  0.000000E+00  1.000000E+00  0.000000E+00  6.000000E-02  1.000000E+00  1.000000E-12  9.400000E-01  0.000000E+00  0.000000E+00  1.023701E+03  3.400000E-01  2.264000E-12  2.264000E-12  2.264000E-13  0.000000E+00  1.000000E+00  0.000000E+00  3.057947E+05  1.000000E+00  4.328210E-04  9.200000E+02  2.510000E+00  1.000000E+00
  5.00000000000E-01  0.00000000000E+00 -1.10000000000E+01   2.000000E+07  7.500000E+01  0.000000E+00  1.000000E+00  0.000000E+00  6.000000E-02  1.000000E+00  1.000000E-12  9.400000E-01  0.000000E+00  0.000000E+00  1.023701E+03  3.400000E-01  2.264000E-12  2.264000E-12  2.264000E-13  0.000000E+00  1.000000E+00  0.000000E+00  3.057947E+05  1.000000E+00  4.328210E-04  9.200000E+02  2.510000E+00  1.000000E+00
  5.00000000000E-01  0.00000000000E+00 -1.30000000000E+01   2.000000E+07  7.500000E+01  0.000000E+00  1.000000E+00  0.000000E+00  6.000000E-02  1.000000E+00  1.000000E-12  9.400000E-01  0.000000E+00  0.000000E+00  1.023701E+03  3.400000E-01  2.264000E-12  2.264000E-12  2.264000E-13  0.000000E+00  1.000000E+00  0.000000E+00  3.057947E+05  1.000000E+00  4.328210E-04  9.200000E+02  2.510000E+00  1.000000E+00
  5.00000000000E-01  0.00000000000E+00 -1.50000000000E+01   2.000000E+07  7.500000E+01  0.000000E+00  1.000000E+00  0.000000E+00  6.000000E-02  1.000000E+00  1.000000E-12  9.400000E-01  0.000000E+00  0.000000E+00  1.023701E+03  3.400000E-01  2.264000E-12  2.264000E-12  2.264000E-13  0.000000E+00  1.000000E+00  0.000000E+00  3.057947E+05  1.000000E+00  4.328210E-04  9.200000E+02  2.510000E+00  1.000000E+00
  5.00000000000E-01  0.00000000000E+00 -1.70000000000E+01   2.000000E+07  7.500000E+01  0.000000E+00  1.000000E+00  0.000000E+00  6.000000E-02  1.000000E+00  1.000000E-12  9.400000E-01  0.000000E+00  0.000000E+00  1.023701E+03  3.400000E-01  2.264000E-12  2.264000E-12  2.264000E-13  0.000000E+00  1.000000E+00  0.000000E+00  3.057947E+05  1.000000E+00  4.328210E-04  9.200000E+02  2.510000E+00  1.000000E+00
  5.00000000000E-01  0.00000000000E+00 -1.90000000000E+01   2.000000E+07  7.500000E+01  0.000000E+00  1.000000E+00  0.000000E+00  6.000000E-02  1.000000E+00  1.000000E-12  9.400000E-01  0.000000E+00  0.000000E+00  1.023701E+03  3.400000E-01  2.264000E-12  2.264000E-12  2.264000E-13  0.000000E+00  1.000000E+00  0.000000E+00  3.057947E+05  1.000000E+00  4.328210E-04  9.200000E+02  2.510000E+00  1.000000E+00
  5.00000000000E-01  0.00000000000E+00 -2.10000000000E+01   2.000000E+07  7.500000E+01  0.000000E+00  1.000000E+00  0.000000E+00  6.000000E-02  1.000000E+00  1.000000E-12  9.400000E-01  0.000000E+00  0.000000E+00  1.023701E+03  3.400000E-01  2.264000E-12  2.264000E-12  2.264000E-13  0.000000E+00  1.000000E+00  0.000000E+00  3.057947E+05  1.000000E+00  4.328210E-04  9.200000E+02  2.510000E+00  1.000000E+00
  5.00000000000E-01  0.00000000000E+00 -2.30000000000E+01   2.000000E+07  7.500000E+01  0.000000E+00  1.000000E+00  0.000000E+00  6.000000E-02  1.000000E+00  1.000000E-12  9.400000E-01  0.000000E+00  0.000000E+00  1.023701E+03  3.400000E-01  2.264000E-12  2.264000E-12  2.264000E-13  0.000000E+00  1.000000E+00  0.000000E+00  3.057947E+05  1.000000E+00  4.328210E-04  9.200000E+02  2.510000E+00  1.000000E+00
  5.00000000000E-01  0.00000000000E+00 -2.50000000000E+01   2.000000E+07  7.500000E+01  0.000000E+00  1.000000E+00  0.000000E+00  6.000000E-02  1.000000E+00  1.000000E-12  9.400000E-01  0.000000E+00  0.000000E+00  1.023701E+03  3.400000E-01  2.264000E-12  2.264000E-12  2.264000E-13  0.000000E+00  1.000000E+00  0.000000E+00  3.057947E+05  1.000000E+00  4.328210E-04  9.200000E+02  2.510000E+00  1.000000E+00
  5.00000000000E-01  0.00000000000E+00 -2.70000000000E+01   2.000002E+07  7.500000E+01  0.000000E+00  1.000000E+00  0.000000E+00  6.000000E-02  1.000000E+00  1.000000E-12  9.400000E-01  0.000000E+00  0.000000E+00  1.023701E+03  3.400000E-01  2.264001E-12  2.264001E-12  2.264001E-13  0.000000E+00  1.000000E+00  0.000000E+00  3.057947E+05  1.000000E+00  4.328210E-04  9.200000E+02  2.510000E+00  1.000000E+00
  5.00000000000E-01  0.00000000000E+00 -2.90000000000E+01   2.000024E+07  7.500000E+01  0.000000E+00  1.000000E+00  0.000000E+00  6.000000E-02  1.000000E+00  1.000000E-12  9.400000E-01  0.000000E+00  0.000000E+00  1.023701E+03  3.400002E-01  2.264004E-12  2.264004E-12  2.264004E-13  0.000000E+00  1.000000E+00  0.000000E+00  3.057949E+05  1.000000E+00  4.328211E-04  9.200000E+02  2.510000E+00  1.000000E+00
  5.00000000000E-01  0.00000000000E+00 -3.10000000000E+01   2.000374E+07  7.500000E+01  0.000000E+00  1.000000E+00  0.000000E+00  6.000000E-02  1.000000E+00  6.433506E-08  9.399999E-01  0.000000E+00  0.000000E+00  1.023702E+03  3.400027E-01  2.264054E-12  2.264054E-12  2.264054E-13  0.000000E+00  1.000000E+00  0.000000E+00  3.057977E+05  1.000000E+00  4.328221E-04  9.200000E+02  2.510000E+00  1.000000E+00
  5.00000000000E-01  0.00000000000E+00 -3.30000000000E+01   2.009711E+07  7.500000E+01  0.000000E+00  1.000000E+00  0.000000E+00  5.986313E-02  1.000000E+00  2.281178E-03  9.378557E-01  0.000000E+00  0.000000E+00  1.024173E+03  3.401231E-01  2.266459E-12  2.266459E-12  2.266459E-13  0.000000E+00  1.000000E+00  0.000000E+00  3.051752E+05  1.000000E+00  4.328488E-04  9.200000E+02  2.510000E+00  1.000000E+00
  5.00000000000E-01  0.00000000000E+00 -3.50000000000E+01   2.010065E+07  7.500000E+01  0.000000E+00  1.000000E+00  0.000000E+00  5.986313E-02  1.000000E+00  2.281178E-03  9.378557E-01  0.000000E+00  0.000000E+00  1.024174E+03  3.401256E-01  2.266510E-12  2.266510E-12  2.266510E-13  0.000000E+00  1.000000E+00  0.000000E+00  3.051780E+05  1.000000E+00  4.328499E-04  9.200000E+02  2.510000E+00  1.000000E+00
  5.00000000000E-01  0.00000000000E+00 -3.70000000000E+01   2.010115E+07  7.500000E+01  0.000000E+00  1.000000E+00  0.000000E+00  5.986313E-02  1.000000E+00  2.281178E-03  9.378557E-01  0.000000E+00  0.000000E+00  1.024174E+03  3.401260E-01  2.266517E-12  2.266517E-12  2.266517E-13  0.000000E+00  1.000000E+00  0.000000E+00  3.051784E+05  1.000000E+00  4.328500E-04  9.200000E+02  2.510000E+00  1.000000E+00
  5.00000000000E-01  0.00000000000E+00 -3.90000000000E+01   2.010357E+07  7.500000E+01  0.000000E+00  1.000000E+00  0.000000E+00  5.986313E-02  1.000000E+00  2.281178E-03  9.378557E-01  0.000000E+00  0.000000E+00  1.024175E+03  3.401277E-01  2.266551E-12  2.266551E-12  2.266551E-13  0.000000E+00  1.000000E+00  0.000000E+00  3.051804E+05  1.000000E+00  4.328507E-04  9.200000E+02  2.510000E+00  1.000000E+00
  1.60700000000E+00  0.00000000000E+00 -1.00000000000E+00   1.999728E+07  7.500000E+01  0.000000E+00  1.000000E+00  0.000000E+00  6.000000E-02  1.000000E+00  1.000000E-12  9.400000E-01  0.000000E+00  0.000000E+00  1.023699E+03  3.399981E-01  2.263961E-12  2.263961E-12  2.263961E-13  0.000000E+00  1.000000E+00  0.000000E+00  3.057925E+05  1.000000E+00  4.328202E-04  9.200000E+02  2.510000E+00  1.000000E+00
  1.60700000000E+00  0.00000000000E+00 -3.00000000000E+00   1.999968E+07  7.500000E+01  0.000000E+00  1.000000E+00  0.000000E+00  6.000000E-02  1.000000E+00  1.000000E-12  9.400000E-01  0.000000E+00  0.000000E+00  1.023700E+03  3.399998E-01  2.263996E-12  2.263996E-12  2.263996E-13  0.000000E+00  1.000000E+00  0.000000E+00  3.057944E+05  1.000000E+00  4.328209E-04  9.200000E+02  2.510000E+00  1.000000E+00
  1.60700000000E+00  0.00000000000E+00 -5.00000000000E+00   1.999996E+07  7.500000E+01  0.000000E+00  1.000000E+00  0.000000E+00  6.000000E-02  1.000000E+00  1.000000E-12  9.400000E-01  0.000000E+00  0.000000E+00  1.023701E+03  3.400000E-01  2.264000E-12  2.264000E-12  2.264000E-13  0.000000E+00  1.000000E+00  0.000000E+00  3.057947E+05  1.000000E+00  4.328210E-04  9.200000E+02  2.510000E+00  1.000000E+00
  1.60700000000E+00  0.00000000000E+00 -7.00000000000E+00   2.000000E+07  7.500000E+01  0.000000E+00  1.000000E+00  0.000000E+00  6.000000E-02  1.000000E+00  1.000000E-12  9.400000E-01  0.000000E+00  0.000000E+00  1.023701E+03  3.400000E-01  2.264000E-12  2.264000E-12  2.264000E-13  0.000000E+00  1.000000E+00  0.000000E+00  3.057947E+05  1.000000E+00  4.328210E-04  9.200000E+02  2.510000E+00  1.000000E+00
  1.60700000000E+00  0.00000000000E+00 -9.00000000000E+00   2.000000E+07  7.500000E+01  0.000000E+00  1.000000E+00  0.000000E+00  6.000000E-02  1.000000E+00  1.000000E-12  9.400000E-01  0.000000E+00  0.000000E+00  1.023701E+03  3.400000E-01  2.264000E-12  2.264000E-12  2.264000E-13  0.000000E+00  1.000000E+00  0.000000E+00  3.057947E+05  1.000000E+00  4.328210E-04  9.200000E+02  2.510000E+00  1.000000E+00
  1.60700000000E+00  0.00000000000E+00 -1.10000000000E+01   2.000000E+07  7.500000E+01  0.000000E+00  1.000000E+00  0.000000E+00  6.000000E-02  1.000000E+00  1.000000E-12  9.400000E-01  0.000000E+00  0.000000E+00  1.023701E+03  3.400000E-01  2.264000E-12  2.264000E-12  2.264000E-13  0.000000E+00  1.000000E+00  0.000000E+00  3.057947E+05  1.000000E+00  4.328210E-04  9.200000E+02  2.510000E+00  1.000000E+00
  1.60700000000E+00  0.00000000000E+00 -1.30000000000E+01   2.000000E+07  7.500000E+01  0.000000E+00  1.000000E+00  0.000000E+00  6.000000E-02  1.000000E+00  1.000000E-12  9.400000E-01  0.000000E+00  0.000000E+00  1.023701E+03  3.400000E-01  2.264000E-12  2.264000E-12  2.264000E-13  0.000000E+00  1.000000E+00  0.000000E+00  3.057947E+05  1.000000E+00  4.328210E-04  9.200000E+02  2.510000E+00  1.000000E+00
  1.60700000000E+00  0.00000000000E+00 -1.50000000000E+01   2.000000E+07  7.500000E+01  0.000000E+00  1.000000E+00  0.000000E+00  6.000000E-02  1.000000E+00  1.000000E-12  9.400000E-01  0.000000E+00  0.000000E+00  1.023701E+03  3.400000E-01  2.264000E-12  2.264000E-12  2.264000E-13  0.000000E+00  1.000000E+00  0.000000E+00  3.057947E+05  1.000000E+00  4.328210E-04  9.200000E+02  2.510000E+00  1.000000E+00
  1.60700000000E+00  0.00000000000E+00 -1.70000000000E+01   2.000000E+07  7.500000E+01  0.000000E+00  1.000000E+00  0.000000E+00  6.000000E-02  1.000000E+00  1.000000E-12  9.400000E-01  0.000000E+00  0.000000E+00  1.023701E+03  3.400000E-01  2.264000E-12  2.264000E-12  2.264000E-13  0.000000E+00  1.000000E+00  0.000000E+00  3.057947E+05  1.000000E+00  4.328210E-04  9.200000E+02  2.510000E+00  1.000000E+00
  1.60700000000E+00  0.00000000000E+00 -1.90000000000E+01   2.000000E+07  7.500000E+01  0.000000E+00  1.000000E+00  0.000000E+00  6.000000E-02  1.000000E+00  1.000000E-12  9.400000E-01  0.000000E+00  0.000000E+00  1.023701E+03  3.400000E-01  2.264000E-12  2.264000E-12  2.264000E-13  0.000000E+00  1.000000E+00  0.000000E+00  3.057947E+05  1.000000E+00  4.328210E-04  9.200000E+02  2.510000E+00  1.000000E+00
  1.60700000000E+00  0.00000000000E+00 -2.10000000000E+01   2.000000E+07  7.500000E+01  0.000000E+00  1.000000E+00  0.000000E+00  6.000000E-02  1.000000E+00  1.000000E-12  9.400000E-01  0.000000E+00  0.000000E+00  1.023701E+03  3.400000E-01  2.264000E-12  2.264000E-12  2.264000E-13  0.000000E+00  1.000000E+00  0.000000E+00  3.057947E+05  1.000000E+00  4.328210E-04  9.200000E+02  2.510000E+00  1.000000E+00
  1.60700000000E+00  0.00000000000E+00 -2.30000000000E+01   2.000000E+07  7.500000E+01  0.000000E+00  1.000000E+00  0.000000E+00  6.000000E-02  1.000000E+00  1.000000E-12  9.400000E-01  0.000000E+00  0.000000E+00  1.023701E+03  3.400000E-01  2.264000E-12  2.264000E-12  2.264000E-13  0.000000E+00  1.000000E+00  0.000000E+00  3.057947E+05  1.000000E+00  4.328210E-04  9.200000E+02  2.510000E+00  1.000000E+00
  1.60700000000E+00  0.00000000000E+00 -2.50000000000E+01   2.000000E+07  7.500000E+01  0.000000E+00  1.000000E+00  0.000000E+00  6.000000E-02  1.000000E+00  1.000000E-12  9.400000E-01  0.000000E+00  0.000000E+00  1.023701E+03  3.400000E-01  2.264000E-12  2.264000E-12  2.264000E-13  0.000000E+00  1.000000E+00  0.000000E+00  3.057947E+05  1.000000E+00  4.328210E-04  9.200000E+02  2.510000E+00  1.000000E+00
  1.60700000000E+00  0.00000000000E+00 -2.70000000000E+01   2.000002E+07  7.500000E+01  0.000000E+00  1.000000E+00  0.000000E+00  6.000000E-02  1.000000E+00  1.000000E-12  9.400000E-01  0.000000E+00  0.000000E+00  1.023701E+03  3.400000E-01  2.264001E-12  2.264001E-12  2.264001E-13  0.000000E+00  1.000000E+00  0.000000E+00  3.057947E+05  1.000000E+00  4.328210E-04  9.200000E+02  2.510000E+00  1.000000E+00
  1.60700000000E+00  0.00000000000E+00 -2.90000000000E+01   2.000021E+07  7.500000E+01  0.000000E+00  1.000000E+00  0.000000E+00  6.000000E-02  1.000000E+00  1.000000E-12  9.400000E-01  0.000000E+00  0.000000E+00  1.023701E+03  3.400002E-01  2.264003E-12  2.264003E-12  2.264003E-13  0.000000E+00  1.000000E+00  0.000000E+00  3.057949E+05  1.000000E+00  4.328211E-04  9.200000E+02  2.510000E+00  1.000000E+00
  1.60700000000E+00  0.00000000000E+00 -3.10000000000E+01   2.000283E+07  7.500000E+01  0.000000E+00  1.000000E+00  0.000000E+00  6.000000E-02  1.000000E+00  7.520976E-12  9.400000E-01  0.000000E+00  0.000000E+00  1.023702E+03  3.400020E-01  2.264041E-12  2.264041E-12  2.264041E-13  0.000000E+00  1.000000E+00  0.000000E+00  3.057970E+05  1.000000E+00  4.328218E-04  9.200000E+02  2.510000E+00  1.000000E+00
  1.60700000000E+00  0.00000000000E+00 -3.30000000000E+01   2.004005E+07  7.500000E+01  0.000000E+00  1.000000E+00  0.000000E+00  5.999994E-02  1.000000E+00  9.262458E-07  9.399991E-01  0.000000E+00  0.000000E+00  1.023717E+03  3.400286E-01  2.264572E-12  2.264572E-12  2.264572E-13  0.000000E+00  1.000000E+00  0.000000E+00  3.058267E+05  1.000000E+00  4.328325E-04  9.200000E+02  2.510000E+00  1.000000E+00
  1.60700000000E+00  0.00000000000E+00 -3.50000000000E+01   2.004271E+07  7.500000E+01  0.000000E+00  1.000000E+00  0.000000E+00  5.999994E-02  1.000000E+00  9.405853E-07  9.399991E-01  0.000000E+00  0.000000E+00  1.023718E+03  3.400305E-01  2.264610E-12  2.264610E-12  2.264610E-13  0.000000E+00  1.000000E+00  0.000000E+00  3.058288E+05  1.000000E+00  4.328333E-04  9.200000E+02  2.510000E+00  1.000000E+00
  1.60700000000E+00  0.00000000000E+00 -3.70000000000E+01   2.004319E+07  7.500000E+01  0.000000E+00  1.000000E+00  0.000000E+00  5.999994E-02  1.000000E+00  9.409598E-07  9.399991E-01  0.000000E+00  0.000000E+00  1.023718E+03  3.400309E-01  2.264617E-12  2.264617E-12  2.264617E-13  0.000000E+00  1.000000E+00  0.000000E+00  3.058292E+05  1.000000E+00  4.328334E-04  9.200000E+02  2.510000E+00  1.000000E+00
  1.60700000000E+00  0.00000000000E+00 -3.90000000000E+01   2.004560E+07  7.500000E+01  0.000000E+00  1.000000E+00  0.000000E+00  5.999994E-02  1.000000E+00  9.409788E-07  9.399991E-01  0.000000E+00  0.000000E+00  1.023719E+03  3.400326E-01  2.264651E-12  2.264651E-12  2.264651E-13  0.000000E+00  1.000000E+00  0.000000E+00  3.058311E+05  1.000000E+00  4.328341E-04  9.200000E+02  2.510000E+00  1.000000E+00
  2.95300000000E+00  0.00000000000E+00 -1.00000000000E+00   1.999728E+07  7.500000E+01  0.000000E+00  1.000000E+00  0.000000E+00  6.000000E-02  1.000000E+00  1.000000E-12  9.400000E-01  0.000000E+00  0.000000E+00  1.023699E+03  3.399981E-01  2.263961E-12  2.263961E-12  2.263961E-13  0.000000E+00  1.000000E+00  0.000000E+00  3.057925E+05  1.000000E+00  4.328202E-04  9.200000E+02  2.510000E+00  1.000000E+00
  2.95300000000E+00  0.00000000000E+00 -3.00000000000E+00   1.999968E+07  7.500000E+01  0.000000E+00  1.000000E+00  0.000000E+00  6.000000E-02  1.000000E+00  1.000000E-12  9.400000E-01  0.000000E+00  0.000000E+00  1.023700E+03  3.399998E-01  2.263996E-12  2.263996E-12  2.263996E-13  0.000000E+00  1.000000E+00  0.000000E+00  3.057944E+05  1.000000E+00  4.328209E-04  9.200000E+02  2.510000E+00  1.000000E+00
  2.95300000000E+00  0.00000000000E+00 -5.00000000000E+00   1.999996E+07  7.500000E+01  0.000000E+00  1.000000E+00  0.000000E+00  6.000000E-02  1.000000E+00  1.000000E-12  9.400000E-01  0.000000E+00  0.000000E+00  1.023701E+03  3.400000E-01  2.264000E-12  2.264000E-12  2.264000E-13  0.000000E+00  1.000000E+00  0.000000E+00  3.057947E+05  1.000000E+00  4.328210E-04  9.200000E+02  2.510000E+00  1.000000E+00
  2.95300000000E+00  0.00000000000E+00 -7.00000000000E+00   2.000000E+07  7.500000E+01  0.000000E+00  1.000000E+00  0.000000E+00  6.000000E-02  1.000000E+00  1.000000E-12  9.400000E-01  0.000000E+00  0.000000E+00  1.023701E+03  3.400000E-01  2.264000E-12  2.264000E-12  2.264000E-13  0.000000E+00  1.000000E+00  0.000000E+00  3.057947E+05  1.000000E+00  4.328210E-04  9.200000E+02  2.510000E+00  1.000000E+00
  2.95300000000E+00  0.00000000000E+00 -9.00000000000E+00   2.000000E+07  7.500000E+01  0.000000E+00  1.000000E+00  0.000000E+00  6.000000E-02  1.000000E+00  1.000000E-12  9.400000E-01  0.000000E+00  0.000000E+00  1.023701E+03  3.400000E-01  2.264000E-12  2.264000E-12  2.264000E-13  0.000000E+00  1.000000E+00  0.000000E+00  3.057947E+05  1.000000E+00  4.328210E-04  9.200000E+02  2.510000E+00  1.000000E+00
  2.95300000000E+00  0.00000000000E+00 -1.10000000000E+01   2.000000E+07  7.500000E+01  0.000000E+00  1.000000E+00  0.000000E+00  6.000000E-02  1.000000E+00  1.000000E-12  9.400000E-01  0.000000E+00  0.000000E+00  1.023701E+03  3.400000E-01  2.264000E-12  2.264000E-12  2.264000E-13  0.000000E+00  1.000000E+00  0.000000E+00  3.057947E+05  1.000000E+00  4.328210E-04  9.200000E+02  2.510000E+00  1.000000E+00
  2.95300000000E+00  0.00000000000E+00 -1.30000000000E+01   2.000000E+07  7.500000E+01  0.000000E+00  1.000000E+00  0.000000E+00  6.000000E-02  1.000000E+00  1.000000E-12  9.400000E-01  0.000000E+00  0.000000E+00  1.023701E+03  3.400000E-01  2.264000E-12  2.264000E-12  2.264000E-13  0.000000E+00  1.000000E+00  0.000000E+00  3.057947E+05  1.000000E+00  4.328210E-04  9.200000E+02  2.510000E+00  1.000000E+00
  2.95300000000E+00  0.00000000000E+00 -1.50000000000E+01   2.000000E+07  7.500000E+01  0.000000E+00  1.000000E+00  0.000000E+00  6.000000E-02  1.000000E+00  1.000000E-12  9.400000E-01  0.000000E+00  0.000000E+00  1.023701E+03  3.400000E-01  2.264000E-12  2.264000E-12  2.264000E-13  0.000000E+00  1.000000E+00  0.000000E+00  3.057947E+05  1.000000E+00  4.328210E-04  9.200000E+02  2.510000E+00  1.000000E+00
  2.95300000000E+00  0.00000000000E+00 -1.70000000000E+01   2.000000E+07  7.500000E+01  0.000000E+00  1.000000E+00  0.000000E+00  6.000000E-02  1.000000E+00  1.000000E-12  9.400000E-01  0.000000E+00  0.000000E+00  1.023701E+03  3.400000E-01  2.264000E-12  2.264000E-12  2.264000E-13  0.000000E+00  1.000000E+00  0.000000E+00  3.057947E+05  1.000000E+00  4.328210E-04  9.200000E+02  2.510000E+00  1.000000E+00
  2.95300000000E+00  0.00000000000E+00 -1.90000000000E+01   2.000000E+07  7.500000E+01  0.000000E+00  1.000000E+00  0.000000E+00  6.000000E-02  1.000000E+00  1.000000E-12  9.400000E-01  0.000000E+00  0.000000E+00  1.023701E+03  3.400000E-01  2.264000E-12  2.264000E-12  2.264000E-13  0.000000E+00  1.000000E+00  0.000000E+00  3.057947E+05  1.000000E+00  4.328210E-04  9.200000E+02  2.510000E+00  1.000000E+00
  2.95300000000E+00  0.00000000000E+00 -2.10000000000E+01   2.000000E+07  7.500000E+01  0.000000E+00  1.000000E+00  0.000000E+00  6.000000E-02  1.000000E+00  1.000000E-12  9.400000E-01  0.000000E+00  0.000000E+00  1.023701E+03  3.400000E-01  2.264000E-12  2.264000E-12  2.264000E-13  0.000000E+00  1.000000E+00  0.000000E+00  3.057947E+05  1.000000E+00  4.328210E-04  9.200000E+02  2.510000E+00  1.000000E+00
  2.95300000000E+00  0.00000000000E+00 -2.30000000000E+01   2.000000E+07  7.500000E+01  0.000000E+00  1.000000E+00  0.000000E+00  6.000000E-02  1.000000E+00  1.000000E-12  9.400000E-01  0.000000E+00  0.000000E+00  1.023701E+03  3.400000E-01  2.264000E-12  2.264000E-12  2.264000E-13  0.000000E+00  1.000000E+00  0.000000E+00  3.057947E+05  1.000000E+00  4.328210E-04  9.200000E+02  2.510000E+00  1.000000E+00
  2.95300000000E+00  0.00000000000E+00 -2.50000000000E+01   2.000000E+07  7.500000E+01  0.000000E+00  1.000000E+00  0.000000E+00  6.000000E-02  1.000000E+00  1.000000E-12  9.400000E-01  0.000000E+00  0.000000E+00  1.023701E+03  3.400000E-01  2.264000E-12  2.264000E-12  2.264000E-13  0.000000E+00  1.000000E+00  0.000000E+00  3.057947E+05  1.000000E+00  4.328210E-04  9.200000E+02  2.510000E+00  1.000000E+00
  2.95300000000E+00  0.00000000000E+00 -2.70000000000E+01   2.000002E+07  7.500000E+01  0.000000E+00  1.000000E+00  0.000000E+00  6.000000E-02  1.000000E+00  1.000000E-12  9.400000E-01  0.000000E+00  0.000000E+00  1.023701E+03  3.400000E-01  2.264000E-12  2.264000E-12  2.264000E-13  0.000000E+00  1.000000E+00  0.000000E+00  3.057947E+05  1.000000E+00  4.328210E-04  9.200000E+02  2.510000E+00  1.000000E+00
  2.95300000000E+00  0.00000000000E+00 -2.90000000000E+01   2.000017E+07  7.500000E+01  0.000000E+00  1.000000E+00  0.000000E+00  6.000000E-02  1.000000E+00  1.000000E-12  9.400000E-01  0.000000E+00  0.000000E+00  1.023701E+03  3.400001E-01  2.264003E-12  2.264003E-12  2.264003E-13  0.000000E+00  1.000000E+00  0.000000E+00  3.057948E+05  1.000000E+00  4.328211E-04  9.200000E+02  2.510000E+00  1.000000E+00
  2.95300000000E+00  0.00000000000E+00 -3.10000000000E+01   2.000185E+07  7.500000E+01  0.000000E+00  1.000000E+00  0.000000E+00  6.000000E-02  1.000000E+00  1.000037E-12  9.400000E-01  0.000000E+00  0.000000E+00  1.023701E+03  3.400013E-01  2.264027E-12  2.264027E-12  2.264027E-13  0.000000E+00  1.000000E+00  0.000000E+00  3.057962E+05  1.000000E+00  4.328215E-04  9.200000E+02  2.510000E+00  1.000000E+00
  2.95300000000E+00  0.00000000000E+00 -3.30000000000E+01   2.001750E+07  7.500000E+01  0.000000E+00  1.000000E+00  0.000000E+00  6.000000E-02  1.000000E+00  1.224547E-10  9.400000E-01  0.000000E+00  0.000000E+00  1.023708E+03  3.400125E-01  2.264250E-12  2.264250E-12  2.264250E-13  0.000000E+00  1.000000E+00  0.000000E+00  3.058088E+05  1.000000E+00  4.328260E-04  9.200000E+02  2.510000E+00  1.000000E+00
  2.95300000000E+00  0.00000000000E+00 -3.50000000000E+01   2.001921E+07  7.500000E+01  0.000000E+00  1.000000E+00  0.000000E+00  6.000000E-02  1.000000E+00  1.294452E-10  9.400000E-01  0.000000E+00  0.000000E+00  1.023708E+03  3.400137E-01  2.264274E-12  2.264274E-12  2.264274E-13  0.000000E+00  1.000000E+00  0.000000E+00  3.058102E+05  1.000000E+00  4.328265E-04  9.200000E+02  2.510000E+00  1.000000E+00
  2.95300000000E+00  0.00000000000E+00 -3.70000000000E+01   2.001965E+07  7.500000E+01  0.000000E+00  1.000000E+00  0.000000E+00  6.000000E-02  1.000000E+00  1.297241E-10  9.400000E-01  0.000000E+00  0.000000E+00  1.023709E+03  3.400140E-01  2.264281E-12  2.264281E-12  2.264281E-13  0.000000E+00  1.000000E+00  0.000000E+00  3.058105E+05  1.000000E+00  4.328266E-04  9.200000E+02  2.510000E+00  1.000000E+00
  2.95300000000E+00  0.00000000000E+00 -3.90000000000E+01   2.002206E+07  7.500000E+01  0.000000E+00  1.000000E+00  0.000000E+00  6.000000E-02  1.000000E+00  1.297392E-10  9.400000E-01  0.000000E+00  0.000000E+00  1.023710E+03  3.400158E-01  2.264315E-12  2.264315E-12  2.264315E-13  0.000000E+00  1.000000E+00  0.000000E+00  3.058125E+05  1.000000E+00  4.328273E-04  9.200000E+02  2.510000E+00  1.000000E+00
  4.58600000000E+00  0.00000000000E+00 -1.00000000000E+00   1.999728E+07  7.500000E+01  0.000000E+00  1.000000E+00  0.000000E+00  6.000000E-02  1.000000E+00  1.000000E-12  9.400000E-01  0.000000E+00  0.000000E+00  1.023699E+03  3.399981E-01  2.263961E-12  2.263961E-12  2.263961E-13  0.000000E+00  1.000000E+00  0.000000E+00  3.057925E+05  1.000000E+00  4.328202E-04  9.200000E+02  2.510000E+00  1.000000E+00
  4.58600000000E+00  0.00000000000E+00 -3.00000000000E+00   1.999968E+07  7.500000E+01  0.000000E+00  1.000000E+00  0.000000E+00  6.000000E-02  1.000000E+00  1.000000E-12  9.400000E-01  0.000000E+00  0.000000E+00  1.023700E+03  3.399998E-01  2.263996E-12  2.263996E-12  2.263996E-13  0.000000E+00  1.000000E+00  0.000000E+00  3.057944E+05  1.000000E+00  4.328209E-04  9.200000E+02  2.510000E+00  1.000000E+00
  4.58600000000E+00  0.00000000000E+00 -5.00000000000E+00   1.999996E+07  7.500000E+01  0.000000E+00  1.000000E+00  0.000000E+00  6.000000E-02  1.000000E+00  1.000000E-12  9.400000E-01  0.000000E+00  0.000000E+00  1.023701E+03  3.400000E-01  2.264000E-12  2.264000E-12  2.264000E-13  0.000000E+00  1.000000E+00  0.000000E+00  3.057947E+05  1.000000E+00  4.328210E-04  9.200000E+02  2.510000E+00  1.000000E+00
  4.58600000000E+00  0.00000000000E+00 -7.00000000000E+00   2.000000E+07  7.500000E+01  0.000000E+00  1.000000E+00  0.000000E+00  6.000000E-02  1.000000E+00  1.000000E-12  9.400000E-01  0.000000E+00  0.000000E+00  1.023701E+03  3.400000E-01  2.264000E-12  2.264000E-12  2.264000E-13  0.000000E+00  1.000000E+00  0.000000E+00  3.057947E+05  1.000000E+00  4.328210E-04  9.200000E+02  2.510000E+00  1.000000E+00
  4.58600000000E+00  0.00000000000E+00 -9.00000000000E+00   2.000000E+07  7.500000E+01  0.000000E+00  1.000000E+00  0.000000E+00  6.000000E-02  1.000000E+00  1.000000E-12  9.400000E-01  0.000000E+00  0.000000E+00  1.023701E+03  3.400000E-01  2.264000E-12  2.264000E-12  2.264000E-13  0.000000E+00  1.000000E+00  0.000000E+00  3.057947E+05  1.000000E+00  4.328210E-04  9.200000E+02  2.510000E+00  1.000000E+00
  4.58600000000E+00  0.00000000000E+00 -1.10000000000E+01   2.000000E+07  7.500000E+01  0.000000E+00  1.000000E+00  0.000000E+00  6.000000E-02  1.000000E+00  1.000000E-12  9.400000E-01  0.000000E+00  0.000000E+00  1.023701E+03  3.400000E-01  2.264000E-12  2.264000E-12  2.264000E-13  0.000000E+00  1.000000E+00  0.000000E+00  3.057947E+05  1.000000E+00  4.328210E-04  9.200000E+02  2.510000E+00  1.000000E+00
  4.58600000000E+00  0.00000000000E+00 -1.30000000000E+01   2.000000E+07  7.500000E+01  0.000000E+00  1.000000E+00  0.000000E+00  6.000000E-02  1.000000E+00  1.000000E-12  9.400000E-01  0.000000E+00  0.000000E+00  1.023701E+03  3.400000E-01  2.264000E-12  2.264000E-12  2.264000E-13  0.000000E+00  1.000000E+00  0.000000E+00  3.057947E+05  1.000000E+00  4.328210E-04  9.200000E+02  2.510000E+00  1.000000E+00
  4.58600000000E+00  0.00000000000E+00 -1.50000000000E+01   2.000000E+07  7.500000E+01  0.000000E+00  1.000000E+00  0.000000E+00  6.000000E-02  1.000000E+00  1.000000E-12  9.400000E-01  0.000000E+00  0.000000E+00  1.023701E+03  3.400000E-01  2.264000E-12  2.264000E-12  2.264000E-13  0.000000E+00  1.000000E+00  0.000000E+00  3.057947E+05  1.000000E+00  4.328210E-04  9.200000E+02  2.510000E+00  1.000000E+00
  4.58600000000E+00  0.00000000000E+00 -1.70000000000E+01   2.000000E+07  7.500000E+01  0.000000E+00  1.000000E+00  0.000000E+00  6.000000E-02  1.000000E+00  1.000000E-12  9.400000E-01  0.000000E+00  0.000000E+00  1.023701E+03  3.400000E-01  2.264000E-12  2.264000E-12  2.264000E-13  0.000000E+00  1.000000E+00  0.000000E+00  3.057947E+05  1.000000E+00  4.328210E-04  9.200000E+02  2.510000E+00  1.000000E+00
  4.58600000000E+00  0.00000000000E+00 -1.90000000000E+01   2.000000E+07  7.500000E+01  0.000000E+00  1.000000E+00  0.000000E+00  6.000000E-02  1.000000E+00  1.000000E-12  9.400000E-01  0.000000E+00  0.000000E+00  1.023701E+03  3.400000E-01  2.264000E-12  2.264000E-12  2.264000E-13  0.000000E+00  1.000000E+00  0.000000E+00  3.057947E+05  1.000000E+00  4.328210E-04  9.200000E+02  2.510000E+00  1.000000E+00
  4.58600000000E+00  0.00000000000E+00 -2.10000000000E+01   2.000000E+07  7.500000E+01  0.000000E+00  1.000000E+00  0.000000E+00  6.000000E-02  1.000000E+00  1.000000E-12  9.400000E-01  0.000000E+00  0.000000E+00  1.023701E+03  3.400000E-01  2.264000E-12  2.264000E-12  2.264000E-13  0.000000E+00  1.000000E+00  0.000000E+00  3.057947E+05  1.000000E+00  4.328210E-04  9.200000E+02  2.510000E+00  1.000000E+00
  4.58600000000E+00  0.00000000000E+00 -2.30000000000E+01   2.000000E+07  7.500000E+01  0.000000E+00  1.000000E+00  0.000000E+00  6.000000E-02  1.000000E+00  1.000000E-12  9.400000E-01  0.000000E+00  0.000000E+00  1.023701E+03  3.400000E-01  2.264000E-12  2.264000E-12  2.264000E-13  0.000000E+00  1.000000E+00  0.000000E+00  3.057947E+05  1.000000E+00  4.328210E-04  9.200000E+02  2.510000E+00  1.000000E+00