Title="TOUGHREACT V4.13omp : flowvector.tec: Liq & Gas Fluxes (kg/s/m^2), Pore Velocities (m/s), & Heat Fluxes (J/s/m2)"
Variables= "X(m)"     "Y(m)"      "Z(m)"     "FluxLiq"   "FluxLiq_x"   "FluxLiq_y"   "FluxLiq_z"   "PorVelLiq"  "PorVelLiqX"  "PorVelLiqY"  "PorVelLiqZ"     "FluxGas"   "FluxGas_X"   "FluxGas_Y"   "FluxGas_Z"   "PorVelGas"  "PorVelGasX"  "PorVelGasY"  "PorVelGasZ"     "CO2Flux"   "CO2Flux_X"   "CO2Flux_Y"   "CO2Flux_Z"    "NaClFlux"  "NaClFlux_X"  "NaClFlux_Y"  "NaClFlux_Z"    "HeatFlux"  "HeatFlux_X"  "HeatFlux_Y"  "HeatFlux_Z"
Zone T= "1.00000000E+00 sec" I=    1120 J=       1 K=       1 F=Point
  5.00000000000E-01  0.00000000000E+00 -1.00000000000E+00   2.367927E-03 -9.650712E-08  0.000000E+00 -2.367927E-03  6.803256E-06 -2.772733E-10  0.000000E+00 -6.803256E-06  0.000000E+00  0.000000E+00  0.000000E+00  0.000000E+00  0.000000E+00  0.000000E+00  0.000000E+00  0.000000E+00  2.367927E-15 -9.650712E-20  0.000000E+00 -2.367927E-15  1.420756E-04 -5.790427E-09  0.000000E+00 -1.420756E-04  7.240942E+02 -2.951116E-02  0.000000E+00 -7.240942E+02
  5.00000000000E-01  0.00000000000E+00 -3.00000000000E+00   5.018408E-03 -1.143801E-08  0.000000E+00 -5.018408E-03  1.441831E-05 -3.286236E-11  0.000000E+00 -1.441831E-05  0.000000E+00  0.000000E+00  0.000000E+00  0.000000E+00  0.000000E+00  0.000000E+00  0.000000E+00  0.000000E+00  5.018408E-15 -1.143801E-20  0.000000E+00 -5.018408E-15  3.011045E-04 -6.862807E-10  0.000000E+00 -3.011045E-04  1.534597E+03 -3.497681E-03  0.000000E+00 -1.534597E+03
  5.00000000000E-01  0.00000000000E+00 -5.00000000000E+00   5.334679E-03 -1.266453E-09  0.000000E+00 -5.334679E-03  1.532698E-05 -3.638624E-12  0.000000E+00 -1.532698E-05  0.000000E+00  0.000000E+00  0.000000E+00  0.000000E+00  0.000000E+00  0.000000E+00  0.000000E+00  0.000000E+00  5.334679E-15 -1.266453E-21  0.000000E+00 -5.334679E-15  3.200807E-04 -7.598717E-11  0.000000E+00 -3.200807E-04  1.631316E+03 -3.872745E-04  0.000000E+00 -1.631316E+03
  5.00000000000E-01  0.00000000000E+00 -7.00000000000E+00   5.372418E-03 -1.447650E-10  0.000000E+00 -5.372418E-03  1.543540E-05 -4.159218E-13  0.000000E+00 -1.543540E-05  0.000000E+00  0.000000E+00  0.000000E+00  0.000000E+00  0.000000E+00  0.000000E+00  0.000000E+00  0.000000E+00  5.372418E-15 -1.447650E-22  0.000000E+00 -5.372418E-15  3.223451E-04 -8.685900E-12  0.000000E+00 -3.223451E-04  1.642857E+03 -4.426837E-05  0.000000E+00 -1.642857E+03
  5.00000000000E-01  0.00000000000E+00 -9.00000000000E+00   5.376921E-03 -1.706773E-11  0.000000E+00 -5.376921E-03  1.544834E-05 -4.903701E-14  0.000000E+00 -1.544834E-05  0.000000E+00  0.000000E+00  0.000000E+00  0.000000E+00  0.000000E+00  0.000000E+00  0.000000E+00  0.000000E+00  5.376921E-15 -1.706773E-23  0.000000E+00 -5.376921E-15  3.226153E-04 -1.024064E-12  0.000000E+00 -3.226153E-04  1.644234E+03 -5.219223E-06  0.000000E+00 -1.644234E+03
  5.00000000000E-01  0.00000000000E+00 -1.10000000000E+01   5.377459E-03 -2.026512E-12  0.000000E+00 -5.377459E-03  1.544988E-05 -5.822336E-15  0.000000E+00 -1.544988E-05  0.000000E+00  0.000000E+00  0.000000E+00  0.000000E+00  0.000000E+00  0.000000E+00  0.000000E+00  0.000000E+00  5.377459E-15 -2.026512E-24  0.000000E+00 -5.377459E-15  3.226475E-04 -1.215907E-13  0.000000E+00 -3.226475E-04  1.644398E+03 -6.196966E-07  0.000000E+00 -1.644398E+03
  5.00000000000E-01  0.00000000000E+00 -1.30000000000E+01   5.377523E-03 -1.801344E-13  0.000000E+00 -5.377523E-03  1.545007E-05 -5.175410E-16  0.000000E+00 -1.545007E-05  0.000000E+00  0.000000E+00  0.000000E+00  0.000000E+00  0.000000E+00  0.000000E+00  0.000000E+00  0.000000E+00  5.377523E-15 -1.801344E-25  0.000000E+00 -5.377523E-15  3.226514E-04 -1.080806E-14  0.000000E+00 -3.226514E-04  1.644418E+03 -5.508414E-08  0.000000E+00 -1.644418E+03
  5.00000000000E-01  0.00000000000E+00 -1.50000000000E+01   5.377530E-03  6.214636E-13  0.000000E+00 -5.377530E-03  1.545009E-05  1.785516E-15  0.000000E+00 -1.545009E-05  0.000000E+00  0.000000E+00  0.000000E+00  0.000000E+00  0.000000E+00  0.000000E+00  0.000000E+00  0.000000E+00  5.377530E-15  6.214636E-25  0.000000E+00 -5.377530E-15  3.226518E-04  3.728782E-14  0.000000E+00 -3.226518E-04  1.644420E+03  1.900403E-07  0.000000E+00 -1.644420E+03
  5.00000000000E-01  0.00000000000E+00 -1.70000000000E+01   5.377531E-03  6.899147E-12  0.000000E+00 -5.377531E-03  1.545009E-05  1.982182E-14  0.000000E+00 -1.545009E-05  0.000000E+00  0.000000E+00  0.000000E+00  0.000000E+00  0.000000E+00  0.000000E+00  0.000000E+00  0.000000E+00  5.377531E-15  6.899147E-24  0.000000E+00 -5.377531E-15  3.226519E-04  4.139488E-13  0.000000E+00 -3.226519E-04  1.644421E+03  2.109723E-06  0.000000E+00 -1.644421E+03
  5.00000000000E-01  0.00000000000E+00 -1.90000000000E+01   5.377529E-03  7.655711E-11  0.000000E+00 -5.377529E-03  1.545009E-05  2.199549E-13  0.000000E+00 -1.545009E-05  0.000000E+00  0.000000E+00  0.000000E+00  0.000000E+00  0.000000E+00  0.000000E+00  0.000000E+00  0.000000E+00  5.377529E-15  7.655711E-23  0.000000E+00 -5.377529E-15  3.226518E-04  4.593427E-12  0.000000E+00 -3.226518E-04  1.644420E+03  2.341076E-05  0.000000E+00 -1.644420E+03
  5.00000000000E-01  0.00000000000E+00 -2.10000000000E+01   5.377510E-03  8.949797E-10  0.000000E+00 -5.377510E-03  1.545003E-05  2.571351E-12  0.000000E+00 -1.545003E-05  0.000000E+00  0.000000E+00  0.000000E+00  0.000000E+00  0.000000E+00  0.000000E+00  0.000000E+00  0.000000E+00  5.377510E-15  8.949797E-22  0.000000E+00 -5.377510E-15  3.226506E-04  5.369878E-11  0.000000E+00 -3.226506E-04  1.644414E+03  2.736801E-04  0.000000E+00 -1.644414E+03
  5.00000000000E-01  0.00000000000E+00 -2.30000000000E+01   5.377304E-03  1.119689E-08  0.000000E+00 -5.377304E-03  1.544944E-05  3.216960E-11  0.000000E+00 -1.544944E-05  0.000000E+00  0.000000E+00  0.000000E+00  0.000000E+00  0.000000E+00  0.000000E+00  0.000000E+00  0.000000E+00  5.377304E-15  1.119689E-20  0.000000E+00 -5.377304E-15  3.226382E-04  6.718135E-10  0.000000E+00 -3.226382E-04  1.644351E+03  3.423950E-03  0.000000E+00 -1.644351E+03
  5.00000000000E-01  0.00000000000E+00 -2.50000000000E+01   5.375002E-03  1.553457E-07  0.000000E+00 -5.375002E-03  1.544283E-05  4.463209E-10  0.000000E+00 -1.544283E-05  0.000000E+00  0.000000E+00  0.000000E+00  0.000000E+00  0.000000E+00  0.000000E+00  0.000000E+00  0.000000E+00  5.375002E-15  1.553457E-19  0.000000E+00 -5.375002E-15  3.225001E-04  9.320739E-09  0.000000E+00 -3.225001E-04  1.643647E+03  4.750388E-02  0.000000E+00 -1.643647E+03
  5.00000000000E-01  0.00000000000E+00 -2.70000000000E+01   5.346041E-03  2.566990E-06  0.000000E+00 -5.346040E-03  1.535962E-05  7.375176E-09  0.000000E+00 -1.535962E-05  0.000000E+00  0.000000E+00  0.000000E+00  0.000000E+00  0.000000E+00  0.000000E+00  0.000000E+00  0.000000E+00  5.346041E-15  2.566990E-18  0.000000E+00 -5.346040E-15  3.207625E-04  1.540194E-07  0.000000E+00 -3.207624E-04  1.634791E+03  7.849721E-01  0.000000E+00 -1.634791E+03
  5.00000000000E-01  0.00000000000E+00 -2.90000000000E+01   4.880103E-03  5.831380E-05  0.000000E+00 -4.879755E-03  1.402094E-05  1.675404E-07  0.000000E+00 -1.401994E-05  0.000000E+00  0.000000E+00  0.000000E+00  0.000000E+00  0.000000E+00  0.000000E+00  0.000000E+00  0.000000E+00  4.880103E-15  5.831380E-17  0.000000E+00 -4.879755E-15  2.928062E-04  3.498828E-06  0.000000E+00 -2.927853E-04  1.492310E+03  1.783206E+01  0.000000E+00 -1.492204E+03
  5.00000000000E-01  0.00000000000E+00 -3.10000000000E+01   7.905287E-03  2.194469E-03  0.000000E+00  7.594594E-03  2.270005E-05  6.304883E-06  0.000000E+00  2.180690E-05  0.000000E+00  0.000000E+00  0.000000E+00  0.000000E+00  0.000000E+00  0.000000E+00  0.000000E+00  0.000000E+00  2.238920E-05  1.411813E-10  0.000000E+00  2.238920E-05  4.730268E-04  1.316682E-04  0.000000E+00  4.543323E-04  2.411555E+03  6.710637E+02  0.000000E+00  2.316306E+03
  5.00000000000E-01  0.00000000000E+00 -3.30000000000E+01   1.382168E-01  1.380079E-01  0.000000E+00  7.597022E-03  3.969253E-04  3.963253E-04  0.000000E+00  2.181681E-05  0.000000E+00  0.000000E+00  0.000000E+00  0.000000E+00  0.000000E+00  0.000000E+00  0.000000E+00  0.000000E+00  3.152973E-04  3.148206E-04  0.000000E+00  1.733016E-05  8.274092E-03  8.261584E-03  0.000000E+00  4.547815E-04  4.218035E+04  4.211658E+04  0.000000E+00  2.318423E+03
  5.00000000000E-01  0.00000000000E+00 -3.50000000000E+01   1.402289E-01  1.401453E-01  0.000000E+00 -4.841330E-03  4.027030E-04  4.024629E-04  0.000000E+00 -1.390312E-05  0.000000E+00  0.000000E+00  0.000000E+00  0.000000E+00  0.000000E+00  0.000000E+00  0.000000E+00  0.000000E+00  3.198872E-04  3.196965E-04  0.000000E+00 -1.104394E-05  8.394542E-03  8.389538E-03  0.000000E+00 -2.898172E-04  4.279478E+04  4.276927E+04  0.000000E+00 -1.477461E+03
  5.00000000000E-01  0.00000000000E+00 -3.70000000000E+01   1.402900E-01  1.402011E-01  0.000000E+00 -4.991373E-03  4.028782E-04  4.026231E-04  0.000000E+00 -1.433400E-05  0.000000E+00  0.000000E+00  0.000000E+00  0.000000E+00  0.000000E+00  0.000000E+00  0.000000E+00  0.000000E+00  3.200264E-04  3.198238E-04  0.000000E+00 -1.138621E-05  8.398196E-03  8.392879E-03  0.000000E+00 -2.987992E-04  4.281347E+04  4.278636E+04  0.000000E+00 -1.523258E+03
  5.00000000000E-01  0.00000000000E+00 -3.90000000000E+01   1.402240E-01  1.402040E-01  0.000000E+00 -2.367774E-03  4.026882E-04  4.026308E-04  0.000000E+00 -6.799663E-06  0.000000E+00  0.000000E+00  0.000000E+00  0.000000E+00  0.000000E+00  0.000000E+00  0.000000E+00  0.000000E+00  3.198759E-04  3.198302E-04  0.000000E+00 -5.401314E-06  8.394244E-03  8.393048E-03  0.000000E+00 -1.417423E-04  4.279360E+04  4.278749E+04  0.000000E+00 -7.225934E+02
  1.60700000000E+00  0.00000000000E+00 -1.00000000000E+00   2.367931E-03 -1.615746E-07  0.000000E+00 -2.367931E-03  6.803270E-06 -4.642178E-10  0.000000E+00 -6.803270E-06  0.000000E+00  0.000000E+00  0.000000E+00  0.000000E+00  0.000000E+00  0.000000E+00  0.000000E+00  0.000000E+00  2.367931E-15 -1.615746E-19  0.000000E+00 -2.367931E-15  1.420759E-04 -9.694478E-09  0.000000E+00 -1.420759E-04  7.240957E+02 -4.940831E-02  0.000000E+00 -7.240957E+02
  1.60700000000E+00  0.00000000000E+00 -3.00000000000E+00   5.018413E-03 -1.694134E-08  0.000000E+00 -5.018413E-03  1.441833E-05 -4.867387E-11  0.000000E+00 -1.441833E-05  0.000000E+00  0.000000E+00  0.000000E+00  0.000000E+00  0.000000E+00  0.000000E+00  0.000000E+00  0.000000E+00  5.018413E-15 -1.694134E-20  0.000000E+00 -5.018413E-15  3.011048E-04 -1.016480E-09  0.000000E+00 -3.011048E-04  1.534598E+03 -5.180567E-03  0.000000E+00 -1.534598E+03
  1.60700000000E+00  0.00000000000E+00 -5.00000000000E+00   5.334679E-03 -1.686731E-09  0.000000E+00 -5.334679E-03  1.532698E-05 -4.846119E-12  0.000000E+00 -1.532698E-05  0.000000E+00  0.000000E+00  0.000000E+00  0.000000E+00  0.000000E+00  0.000000E+00  0.000000E+00  0.000000E+00  5.334679E-15 -1.686731E-21  0.000000E+00 -5.334679E-15  3.200808E-04 -1.012039E-10  0.000000E+00 -3.200808E-04  1.631316E+03 -5.157935E-04  0.000000E+00 -1.631316E+03
  1.60700000000E+00  0.00000000000E+00 -7.00000000000E+00   5.372418E-03 -1.819267E-10  0.000000E+00 -5.372418E-03  1.543540E-05 -5.226904E-13  0.000000E+00 -1.543540E-05  0.000000E+00  0.000000E+00  0.000000E+00  0.000000E+00  0.000000E+00  0.000000E+00  0.000000E+00  0.000000E+00  5.372418E-15 -1.819267E-22  0.000000E+00 -5.372418E-15  3.223451E-04 -1.091560E-11  0.000000E+00 -3.223451E-04  1.642857E+03 -5.563222E-05  0.000000E+00 -1.642857E+03
  1.60700000000E+00  0.00000000000E+00 -9.00000000000E+00   5.376921E-03 -2.116797E-11  0.000000E+00 -5.376921E-03  1.544834E-05 -6.081734E-14  0.000000E+00 -1.544834E-05  0.000000E+00  0.000000E+00  0.000000E+00  0.000000E+00  0.000000E+00  0.000000E+00  0.000000E+00  0.000000E+00  5.376921E-15 -2.116797E-23  0.000000E+00 -5.376921E-15  3.226153E-04 -1.270078E-12  0.000000E+00 -3.226153E-04  1.644234E+03 -6.473055E-06  0.000000E+00 -1.644234E+03
  1.60700000000E+00  0.00000000000E+00 -1.10000000000E+01   5.377459E-03 -2.508457E-12  0.000000E+00 -5.377459E-03  1.544988E-05 -7.207005E-15  0.000000E+00 -1.544988E-05  0.000000E+00  0.000000E+00  0.000000E+00  0.000000E+00  0.000000E+00  0.000000E+00  0.000000E+00  0.000000E+00  5.377459E-15 -2.508457E-24  0.000000E+00 -5.377459E-15  3.226475E-04 -1.505074E-13  0.000000E+00 -3.226475E-04  1.644398E+03 -7.670729E-07  0.000000E+00 -1.644398E+03
  1.60700000000E+00  0.00000000000E+00 -1.30000000000E+01   5.377523E-03 -9.857443E-14  0.000000E+00 -5.377523E-03  1.545007E-05 -2.832125E-16  0.000000E+00 -1.545007E-05  0.000000E+00  0.000000E+00  0.000000E+00  0.000000E+00  0.000000E+00  0.000000E+00  0.000000E+00  0.000000E+00  5.377523E-15 -9.857443E-26  0.000000E+00 -5.377523E-15  3.226514E-04 -5.914466E-15  0.000000E+00 -3.226514E-04  1.644418E+03 -3.014354E-08  0.000000E+00 -1.644418E+03
  1.60700000000E+00  0.00000000000E+00 -1.50000000000E+01   5.377530E-03  1.985739E-12  0.000000E+00 -5.377530E-03  1.545009E-05  5.705193E-15  0.000000E+00 -1.545009E-05  0.000000E+00  0.000000E+00  0.000000E+00  0.000000E+00  0.000000E+00  0.000000E+00  0.000000E+00  0.000000E+00  5.377530E-15  1.985739E-24  0.000000E+00 -5.377530E-15  3.226518E-04  1.191444E-13  0.000000E+00 -3.226518E-04  1.644420E+03  6.072286E-07  0.000000E+00 -1.644420E+03
  1.60700000000E+00  0.00000000000E+00 -1.70000000000E+01   5.377531E-03  2.163926E-11  0.000000E+00 -5.377531E-03  1.545009E-05  6.217137E-14  0.000000E+00 -1.545009E-05  0.000000E+00  0.000000E+00  0.000000E+00  0.000000E+00  0.000000E+00  0.000000E+00  0.000000E+00  0.000000E+00  5.377531E-15  2.163926E-23  0.000000E+00 -5.377531E-15  3.226519E-04  1.298355E-12  0.000000E+00 -3.226519E-04  1.644421E+03  6.617170E-06  0.000000E+00 -1.644421E+03
  1.60700000000E+00  0.00000000000E+00 -1.90000000000E+01   5.377529E-03  2.399662E-10  0.000000E+00 -5.377529E-03  1.545009E-05  6.894427E-13  0.000000E+00 -1.545009E-05  0.000000E+00  0.000000E+00  0.000000E+00  0.000000E+00  0.000000E+00  0.000000E+00  0.000000E+00  0.000000E+00  5.377529E-15  2.399662E-22  0.000000E+00 -5.377529E-15  3.226518E-04  1.439797E-11  0.000000E+00 -3.226518E-04  1.644420E+03  7.338039E-05  0.000000E+00 -1.644420E+03
  1.60700000000E+00  0.00000000000E+00 -2.10000000000E+01   5.377510E-03  2.787363E-09  0.000000E+00 -5.377510E-03  1.545003E-05  8.008326E-12  0.000000E+00 -1.545003E-05  0.000000E+00  0.000000E+00  0.000000E+00  0.000000E+00  0.000000E+00  0.000000E+00  0.000000E+00  0.000000E+00  5.377510E-15  2.787363E-21  0.000000E+00 -5.377510E-15  3.226506E-04  1.672418E-10  0.000000E+00 -3.226506E-04  1.644414E+03  8.523610E-04  0.000000E+00 -1.644414E+03
  1.60700000000E+00  0.00000000000E+00 -2.30000000000E+01   5.377313E-03  3.450272E-08  0.000000E+00 -5.377313E-03  1.544946E-05  9.912916E-11  0.000000E+00 -1.544946E-05  0.000000E+00  0.000000E+00  0.000000E+00  0.000000E+00  0.000000E+00  0.000000E+00  0.000000E+00  0.000000E+00  5.377313E-15  3.450272E-20  0.000000E+00 -5.377313E-15  3.226388E-04  2.070163E-09  0.000000E+00 -3.226388E-04  1.644354E+03  1.055075E-02  0.000000E+00 -1.644354E+03
  1.60700000000E+00  0.00000000000E+00 -2.50000000000E+01   5.375144E-03  4.687060E-07  0.000000E+00 -5.375144E-03  1.544323E-05  1.346631E-09  0.000000E+00 -1.544323E-05  0.000000E+00  0.000000E+00  0.000000E+00  0.000000E+00  0.000000E+00  0.000000E+00  0.000000E+00  0.000000E+00  5.375144E-15  4.687060E-19  0.000000E+00 -5.375144E-15  3.225086E-04  2.812236E-08  0.000000E+00 -3.225086E-04  1.643691E+03  1.433278E-01  0.000000E+00 -1.643691E+03
  1.60700000000E+00  0.00000000000E+00 -2.70000000000E+01   5.349266E-03  7.358325E-06  0.000000E+00 -5.349260E-03  1.536888E-05  2.114108E-08  0.000000E+00 -1.536887E-05  0.000000E+00  0.000000E+00  0.000000E+00  0.000000E+00  0.000000E+00  0.000000E+00  0.000000E+00  0.000000E+00  5.349266E-15  7.358325E-18  0.000000E+00 -5.349260E-15  3.209559E-04  4.414995E-07  0.000000E+00 -3.209556E-04  1.635777E+03  2.250137E+00  0.000000E+00 -1.635776E+03
  1.60700000000E+00  0.00000000000E+00 -2.90000000000E+01   5.003249E-03  1.459602E-04  0.000000E+00 -5.001120E-03  1.437475E-05  4.193557E-07  0.000000E+00 -1.436863E-05  0.000000E+00  0.000000E+00  0.000000E+00  0.000000E+00  0.000000E+00  0.000000E+00  0.000000E+00  0.000000E+00  5.003249E-15  1.459602E-16  0.000000E+00 -5.001120E-15  3.001950E-04  8.757612E-06  0.000000E+00 -3.000672E-04  1.529968E+03  4.463388E+01  0.000000E+00 -1.529316E+03
  1.60700000000E+00  0.00000000000E+00 -3.10000000000E+01   4.142911E-03  4.142677E-03  0.000000E+00 -4.396064E-05  1.190291E-05  1.190224E-05  0.000000E+00 -1.264087E-07  0.000000E+00  0.000000E+00  0.000000E+00  0.000000E+00  0.000000E+00  0.000000E+00  0.000000E+00  0.000000E+00  2.129932E-09  1.411960E-10  0.000000E+00  2.125247E-09  2.485746E-04  2.485606E-04  0.000000E+00 -2.637766E-06  1.266890E+03  1.266820E+03  0.000000E+00 -1.336996E+01
  1.60700000000E+00  0.00000000000E+00 -3.30000000000E+01   1.829088E-01  1.829088E-01  0.000000E+00 -3.946277E-05  5.253273E-04  5.253273E-04  0.000000E+00 -1.133780E-07  0.000000E+00  0.000000E+00  0.000000E+00  0.000000E+00  0.000000E+00  0.000000E+00  0.000000E+00  0.000000E+00  3.148622E-04  3.148622E-04  0.000000E+00 -3.655223E-11  1.095564E-02  1.095564E-02  0.000000E+00 -2.367764E-06  5.584848E+04  5.584848E+04  0.000000E+00 -1.206877E+01
  1.60700000000E+00  0.00000000000E+00 -3.50000000000E+01   1.869727E-01  1.869069E-01  0.000000E+00 -4.958364E-03  5.369995E-04  5.368105E-04  0.000000E+00 -1.424555E-05  0.000000E+00  0.000000E+00  0.000000E+00  0.000000E+00  0.000000E+00  0.000000E+00  0.000000E+00  0.000000E+00  3.197405E-04  3.197405E-04  0.000000E+00 -4.630297E-09  1.119918E-02  1.119523E-02  0.000000E+00 -2.975016E-04  5.709045E+04  5.707031E+04  0.000000E+00 -1.516406E+03
  1.60700000000E+00  0.00000000000E+00 -3.70000000000E+01   1.871121E-01  1.870456E-01  0.000000E+00 -4.990199E-03  5.374000E-04  5.372087E-04  0.000000E+00 -1.433701E-05  0.000000E+00  0.000000E+00  0.000000E+00  0.000000E+00  0.000000E+00  0.000000E+00  0.000000E+00  0.000000E+00  3.198679E-04  3.198679E-04  0.000000E+00 -4.694593E-09  1.120754E-02  1.120354E-02  0.000000E+00 -2.994116E-04  5.713315E+04  5.711276E+04  0.000000E+00 -1.526147E+03
  1.60700000000E+00  0.00000000000E+00 -3.90000000000E+01   1.870680E-01  1.870530E-01  0.000000E+00 -2.365774E-03  5.372725E-04  5.372295E-04  0.000000E+00 -6.796946E-06  0.000000E+00  0.000000E+00  0.000000E+00  0.000000E+00  0.000000E+00  0.000000E+00  0.000000E+00  0.000000E+00  3.198743E-04  3.198743E-04  0.000000E+00 -2.226098E-09  1.120489E-02  1.120399E-02  0.000000E+00 -1.419463E-04  5.711997E+04  5.711539E+04  0.000000E+00 -7.235228E+02
  2.95300000000E+00  0.00000000000E+00 -1.00000000000E+00   2.367935E-03  1.032936E-07  0.000000E+00 -2.367935E-03  6.803282E-06  2.967713E-10  0.000000E+00 -6.803282E-06  0.000000E+00  0.000000E+00  0.000000E+00  0.000000E+00  0.000000E+00  0.000000E+00  0.000000E+00  0.000000E+00  2.367935E-15  1.032936E-19  0.000000E+00 -2.367935E-15  1.420761E-04  6.197614E-09  0.000000E+00 -1.420761E-04  7.240969E+02  3.158640E-02  0.000000E+00 -7.240969E+02
  2.95300000000E+00  0.00000000000E+00 -3.00000000000E+00   5.018418E-03  2.195187E-08  0.000000E+00 -5.018418E-03  1.441834E-05  6.306956E-11  0.000000E+00 -1.441834E-05  0.000000E+00  0.000000E+00  0.000000E+00  0.000000E+00  0.000000E+00  0.000000E+00  0.000000E+00  0.000000E+00  5.018418E-15  2.195187E-20  0.000000E+00 -5.018418E-15  3.011051E-04  1.317112E-09  0.000000E+00 -3.011051E-04  1.534600E+03  6.712761E-03  0.000000E+00 -1.534600E+03
  2.95300000000E+00  0.00000000000E+00 -5.00000000000E+00   5.334680E-03  3.244266E-09  0.000000E+00 -5.334680E-03  1.532698E-05  9.321045E-12  0.000000E+00 -1.532698E-05  0.000000E+00  0.000000E+00  0.000000E+00  0.000000E+00  0.000000E+00  0.000000E+00  0.000000E+00  0.000000E+00  5.334680E-15  3.244266E-21  0.000000E+00 -5.334680E-15  3.200808E-04  1.946560E-10  0.000000E+00 -3.200808E-04  1.631316E+03  9.920793E-04  0.000000E+00 -1.631316E+03
  2.95300000000E+00  0.00000000000E+00 -7.00000000000E+00   5.372418E-03  4.164069E-10  0.000000E+00 -5.372418E-03  1.543540E-05  1.196372E-12  0.000000E+00 -1.543540E-05  0.000000E+00  0.000000E+00  0.000000E+00  0.000000E+00  0.000000E+00  0.000000E+00  0.000000E+00  0.000000E+00  5.372418E-15  4.164069E-22  0.000000E+00 -5.372418E-15  3.223451E-04  2.498442E-11  0.000000E+00 -3.223451E-04  1.642857E+03  1.273350E-04  0.000000E+00 -1.642857E+03
  2.95300000000E+00  0.00000000000E+00 -9.00000000000E+00   5.376921E-03  5.020762E-11  0.000000E+00 -5.376921E-03  1.544834E-05  1.442506E-13  0.000000E+00 -1.544834E-05  0.000000E+00  0.000000E+00  0.000000E+00  0.000000E+00  0.000000E+00  0.000000E+00  0.000000E+00  0.000000E+00  5.376921E-15  5.020762E-23  0.000000E+00 -5.376921E-15  3.226153E-04  3.012457E-12  0.000000E+00 -3.226153E-04  1.644234E+03  1.535322E-05  0.000000E+00 -1.644234E+03
  2.95300000000E+00  0.00000000000E+00 -1.10000000000E+01   5.377459E-03  5.963947E-12  0.000000E+00 -5.377459E-03  1.544988E-05  1.713491E-14  0.000000E+00 -1.544988E-05  0.000000E+00  0.000000E+00  0.000000E+00  0.000000E+00  0.000000E+00  0.000000E+00  0.000000E+00  0.000000E+00  5.377459E-15  5.963947E-24  0.000000E+00 -5.377459E-15  3.226475E-04  3.578368E-13  0.000000E+00 -3.226475E-04  1.644398E+03  1.823743E-06  0.000000E+00 -1.644398E+03
  2.95300000000E+00  0.00000000000E+00 -1.30000000000E+01   5.377523E-03  1.082626E-12  0.000000E+00 -5.377523E-03  1.545007E-05  3.110476E-15  0.000000E+00 -1.545007E-05  0.000000E+00  0.000000E+00  0.000000E+00  0.000000E+00  0.000000E+00  0.000000E+00  0.000000E+00  0.000000E+00  5.377523E-15  1.082626E-24  0.000000E+00 -5.377523E-15  3.226514E-04  6.495759E-14  0.000000E+00 -3.226514E-04  1.644418E+03  3.310615E-07  0.000000E+00 -1.644418E+03
  2.95300000000E+00  0.00000000000E+00 -1.50000000000E+01   5.377530E-03  3.659404E-12  0.000000E+00 -5.377530E-03  1.545009E-05  1.051377E-14  0.000000E+00 -1.545009E-05  0.000000E+00  0.000000E+00  0.000000E+00  0.000000E+00  0.000000E+00  0.000000E+00  0.000000E+00  0.000000E+00  5.377530E-15  3.659404E-24  0.000000E+00 -5.377530E-15  3.226518E-04  2.195642E-13  0.000000E+00 -3.226518E-04  1.644420E+03  1.119026E-06  0.000000E+00 -1.644420E+03
  2.95300000000E+00  0.00000000000E+00 -1.70000000000E+01   5.377531E-03  3.763035E-11  0.000000E+00 -5.377531E-03  1.545009E-05  1.081151E-13  0.000000E+00 -1.545009E-05  0.000000E+00  0.000000E+00  0.000000E+00  0.000000E+00  0.000000E+00  0.000000E+00  0.000000E+00  0.000000E+00  5.377531E-15  3.763035E-23  0.000000E+00 -5.377531E-15  3.226519E-04  2.257821E-12  0.000000E+00 -3.226519E-04  1.644421E+03  1.150716E-05  0.000000E+00 -1.644421E+03
  2.95300000000E+00  0.00000000000E+00 -1.90000000000E+01   5.377530E-03  4.131691E-10  0.000000E+00 -5.377530E-03  1.545009E-05  1.187069E-12  0.000000E+00 -1.545009E-05  0.000000E+00  0.000000E+00  0.000000E+00  0.000000E+00  0.000000E+00  0.000000E+00  0.000000E+00  0.000000E+00  5.377530E-15  4.131691E-22  0.000000E+00 -5.377530E-15  3.226518E-04  2.479014E-11  0.000000E+00 -3.226518E-04  1.644420E+03  1.263449E-04  0.000000E+00 -1.644420E+03
  2.95300000000E+00  0.00000000000E+00 -2.10000000000E+01   5.377512E-03  4.725811E-09  0.000000E+00 -5.377512E-03  1.545004E-05  1.357765E-11  0.000000E+00 -1.545004E-05  0.000000E+00  0.000000E+00  0.000000E+00  0.000000E+00  0.000000E+00  0.000000E+00  0.000000E+00  0.000000E+00  5.377512E-15  4.725811E-21  0.000000E+00 -5.377512E-15  3.226507E-04  2.835487E-10  0.000000E+00 -3.226507E-04  1.644415E+03  1.445128E-03  0.000000E+00 -1.644415E+03
  2.95300000000E+00  0.00000000000E+00 -2.30000000000E+01   5.377334E-03  5.705876E-08  0.000000E+00 -5.377334E-03  1.544952E-05  1.639345E-10  0.000000E+00 -1.544952E-05  0.000000E+00  0.000000E+00  0.000000E+00  0.000000E+00  0.000000E+00  0.000000E+00  0.000000E+00  0.000000E+00  5.377334E-15  5.705876E-20  0.000000E+00 -5.377334E-15  3.226400E-04  3.423526E-09  0.000000E+00 -3.226400E-04  1.644360E+03  1.744827E-02  0.000000E+00 -1.644360E+03
  2.95300000000E+00  0.00000000000E+00 -2.50000000000E+01   5.375465E-03  7.414715E-07  0.000000E+00 -5.375465E-03  1.544416E-05  2.130309E-09  0.000000E+00 -1.544416E-05  0.000000E+00  0.000000E+00  0.000000E+00  0.000000E+00  0.000000E+00  0.000000E+00  0.000000E+00  0.000000E+00  5.375465E-15  7.414715E-19  0.000000E+00 -5.375465E-15  3.225279E-04  4.448829E-08  0.000000E+00 -3.225279E-04  1.643789E+03  2.267381E-01  0.000000E+00 -1.643789E+03
  2.95300000000E+00  0.00000000000E+00 -2.70000000000E+01   5.355145E-03  1.065256E-05  0.000000E+00 -5.355134E-03  1.538578E-05  3.060568E-08  0.000000E+00 -1.538574E-05  0.000000E+00  0.000000E+00  0.000000E+00  0.000000E+00  0.000000E+00  0.000000E+00  0.000000E+00  0.000000E+00  5.355145E-15  1.065256E-17  0.000000E+00 -5.355134E-15  3.213087E-04  6.391535E-07  0.000000E+00 -3.213081E-04  1.637575E+03  3.257496E+00  0.000000E+00 -1.637572E+03
  2.95300000000E+00  0.00000000000E+00 -2.90000000000E+01   5.134795E-03  1.743516E-04  0.000000E+00 -5.131834E-03  1.475269E-05  5.009266E-07  0.000000E+00 -1.474418E-05  0.000000E+00  0.000000E+00  0.000000E+00  0.000000E+00  0.000000E+00  0.000000E+00  0.000000E+00  0.000000E+00  5.134795E-15  1.743516E-16  0.000000E+00 -5.131834E-15  3.080877E-04  1.046110E-05  0.000000E+00 -3.079100E-04  1.570193E+03  5.331583E+01  0.000000E+00 -1.569288E+03
  2.95300000000E+00  0.00000000000E+00 -3.10000000000E+01   4.477066E-03  3.269889E-03  0.000000E+00 -3.058095E-03  1.286297E-05  9.394653E-06  0.000000E+00 -8.786159E-06  0.000000E+00  0.000000E+00  0.000000E+00  0.000000E+00  0.000000E+00  0.000000E+00  0.000000E+00  0.000000E+00  1.626425E-14  1.597416E-14  0.000000E+00 -3.058117E-15  2.686240E-04  1.961934E-04  0.000000E+00 -1.834857E-04  1.369069E+03  9.999212E+02  0.000000E+00 -9.351505E+02
  2.95300000000E+00  0.00000000000E+00 -3.30000000000E+01   6.183719E-02  6.176175E-02  0.000000E+00 -3.053595E-03  1.776609E-04  1.774442E-04  0.000000E+00 -8.773181E-06  0.000000E+00  0.000000E+00  0.000000E+00  0.000000E+00  0.000000E+00  0.000000E+00  0.000000E+00  0.000000E+00  4.159135E-08  4.159135E-08  0.000000E+00 -3.017202E-13  3.710229E-03  3.705702E-03  0.000000E+00 -1.832157E-04  1.891116E+04  1.888809E+04  0.000000E+00 -9.338087E+02
  2.95300000000E+00  0.00000000000E+00 -3.50000000000E+01   6.505675E-02  6.485740E-02  0.000000E+00 -5.089067E-03  1.869107E-04  1.863380E-04  0.000000E+00 -1.462120E-05  0.000000E+00  0.000000E+00  0.000000E+00  0.000000E+00  0.000000E+00  0.000000E+00  0.000000E+00  0.000000E+00  4.398559E-08  4.398559E-08  0.000000E+00 -6.415651E-13  3.903403E-03  3.891441E-03  0.000000E+00 -3.053440E-04  1.989589E+04  1.983493E+04  0.000000E+00 -1.556285E+03
  2.95300000000E+00  0.00000000000E+00 -3.70000000000E+01   6.521275E-02  6.502109E-02  0.000000E+00 -4.996063E-03  1.873589E-04  1.868082E-04  0.000000E+00 -1.435399E-05  0.000000E+00  0.000000E+00  0.000000E+00  0.000000E+00  0.000000E+00  0.000000E+00  0.000000E+00  0.000000E+00  4.408109E-08  4.408109E-08  0.000000E+00 -6.473762E-13  3.912762E-03  3.901263E-03  0.000000E+00 -2.997638E-04  1.994362E+04  1.988501E+04  0.000000E+00 -1.527848E+03
  2.95300000000E+00  0.00000000000E+00 -3.90000000000E+01   6.507401E-02  6.503098E-02  0.000000E+00 -2.366074E-03  1.869601E-04  1.868365E-04  0.000000E+00 -6.797874E-06  0.000000E+00  0.000000E+00  0.000000E+00  0.000000E+00  0.000000E+00  0.000000E+00  0.000000E+00  0.000000E+00  4.408632E-08  4.408632E-08  0.000000E+00 -3.069368E-13  3.904438E-03  3.901856E-03  0.000000E+00 -1.419645E-04  1.990132E+04  1.988816E+04  0.000000E+00 -7.235704E+02
  4.58600000000E+00  0.00000000000E+00 -1.00000000000E+00   2.367924E-03  2.964735E-07  0.000000E+00 -2.367924E-03  6.803249E-06  8.517939E-10  0.000000E+00 -6.803248E-06  0.000000E+00  0.000000E+00  0.000000E+00  0.000000E+00  0.000000E+00  0.000000E+00  0.000000E+00  0.000000E+00  2.367924E-15  2.964735E-19  0.000000E+00 -2.367924E-15  1.420754E-04  1.778841E-08  0.000000E+00 -1.420754E-04  7.240934E+02  9.065938E-02  0.000000E+00 -7.240934E+02
  4.58600000000E+00  0.00000000000E+00 -3.00000000000E+00   5.018404E-03  5.005947E-08  0.000000E+00 -5.018404E-03  1.441830E-05  1.438250E-10  0.000000E+00 -1.441830E-05  0.000000E+00  0.000000E+00  0.000000E+00  0.000000E+00  0.000000E+00  0.000000E+00  0.000000E+00  0.000000E+00  5.018404E-15  5.005947E-20  0.000000E+00 -5.018404E-15  3.011042E-04  3.003568E-09  0.000000E+00 -3.011042E-04  1.534596E+03  1.530791E-02  0.000000E+00 -1.534596E+03
  4.58600000000E+00  0.00000000000E+00 -5.00000000000E+00   5.334678E-03  6.686354E-09  0.000000E+00 -5.334678E-03  1.532697E-05  1.921045E-11  0.000000E+00 -1.532697E-05  0.000000E+00  0.000000E+00  0.000000E+00  0.000000E+00  0.000000E+00  0.000000E+00  0.000000E+00  0.000000E+00  5.334678E-15  6.686354E-21  0.000000E+00 -5.334678E-15  3.200807E-04  4.011813E-10  0.000000E+00 -3.200807E-04  1.631315E+03  2.044652E-03  0.000000E+00 -1.631315E+03
  4.58600000000E+00  0.00000000000E+00 -7.00000000000E+00   5.372418E-03  8.206014E-10  0.000000E+00 -5.372418E-03  1.543540E-05  2.357656E-12  0.000000E+00 -1.543540E-05  0.000000E+00  0.000000E+00  0.000000E+00  0.000000E+00  0.000000E+00  0.000000E+00  0.000000E+00  0.000000E+00  5.372418E-15  8.206014E-22  0.000000E+00 -5.372418E-15  3.223451E-04  4.923609E-11  0.000000E+00 -3.223451E-04  1.642857E+03  2.509356E-04  0.000000E+00 -1.642857E+03
  4.58600000000E+00  0.00000000000E+00 -9.00000000000E+00   5.376921E-03  9.727984E-11  0.000000E+00 -5.376921E-03  1.544834E-05  2.794930E-13  0.000000E+00 -1.544834E-05  0.000000E+00  0.000000E+00  0.000000E+00  0.000000E+00  0.000000E+00  0.000000E+00  0.000000E+00  0.000000E+00  5.376921E-15  9.727984E-23  0.000000E+00 -5.376921E-15  3.226153E-04  5.836790E-12  0.000000E+00 -3.226153E-04  1.644234E+03  2.974766E-05  0.000000E+00 -1.644234E+03