Title="TOUGHREACT V4.13omp : Mineral Reactive Surface Area (m^2/kg H2O)"
Variables= "X(m)"   "Y(m)"   "Z(m)"    "SatLiq" "A_fracmtx"  "A_Factor"
Zone T= "1.00000000E+03 sec" I=    6794 J=       1 K=       1 F=Point
  0.00000000000E+00  0.00000000000E+00  0.00000000000E+00 1.00000E+00 1.00000E+00 9.76848E-03
  3.19176920000E+05  5.10094703000E+06  4.39190000000E+02 1.00000E+00 1.00000E+00 1.56080E-02
  3.19476920000E+05  5.10094703000E+06  4.38290000000E+02 1.00000E+00 1.00000E+00 1.56266E-02
  3.19576920000E+05  5.10094703000E+06  4.46560000000E+02 1.00000E+00 1.00000E+00 1.56069E-02
  3.19676920000E+05  5.10094703000E+06  4.59840000000E+02 1.00000E+00 1.00000E+00 1.56123E-02
  3.19776920000E+05  5.10094703000E+06  4.70810000000E+02 1.00000E+00 1.00000E+00 1.56139E-02
  3.19876920000E+05  5.10094703000E+06  4.75190000000E+02 1.00000E+00 1.00000E+00 1.56145E-02
  3.19976920000E+05  5.10094703000E+06  4.75930000000E+02 1.00000E+00 1.00000E+00 1.56147E-02
  3.20076920000E+05  5.10094703000E+06  4.73770000000E+02 1.00000E+00 1.00000E+00 1.56146E-02
  3.20176920000E+05  5.10094703000E+06  4.71320000000E+02 1.00000E+00 1.00000E+00 1.56141E-02
  3.20276920000E+05  5.10094703000E+06  4.63060000000E+02 1.00000E+00 1.00000E+00 1.56130E-02
  3.20376920000E+05  5.10094703000E+06  4.55410000000E+02 1.00000E+00 1.00000E+00 1.56108E-02
  3.20476920000E+05  5.10094703000E+06  4.48440000000E+02 1.00000E+00 1.00000E+00 1.56071E-02
  3.18876920000E+05  5.10084703000E+06  4.43090000000E+02 1.00000E+00 1.00000E+00 1.56066E-02
  3.18976920000E+05  5.10084703000E+06  4.49760000000E+02 1.00000E+00 1.00000E+00 1.56095E-02
  3.19076920000E+05  5.10084703000E+06  4.54770000000E+02 1.00000E+00 1.00000E+00 1.56101E-02
  3.19176920000E+05  5.10084703000E+06  4.50150000000E+02 1.00000E+00 1.00000E+00 1.56078E-02
  3.19276920000E+05  5.10084703000E+06  4.44650000000E+02 1.00000E+00 1.00000E+00 1.56066E-02
  3.19376920000E+05  5.10084703000E+06  4.48080000000E+02 1.00000E+00 1.00000E+00 1.56072E-02
  3.19476920000E+05  5.10084703000E+06  4.45890000000E+02 1.00000E+00 1.00000E+00 1.56050E-02
  3.19576920000E+05  5.10084703000E+06  4.48310000000E+02 1.00000E+00 1.00000E+00 1.56083E-02
  3.19676920000E+05  5.10084703000E+06  4.60970000000E+02 1.00000E+00 1.00000E+00 1.56125E-02
  3.19776920000E+05  5.10084703000E+06  4.65650000000E+02 1.00000E+00 1.00000E+00 1.56138E-02
  3.19876920000E+05  5.10084703000E+06  4.69810000000E+02 1.00000E+00 1.00000E+00 1.56144E-02
  3.19976920000E+05  5.10084703000E+06  4.71130000000E+02 1.00000E+00 1.00000E+00 1.56146E-02
  3.20076920000E+05  5.10084703000E+06  4.67820000000E+02 1.00000E+00 1.00000E+00 1.56143E-02
  3.20176920000E+05  5.10084703000E+06  4.64380000000E+02 1.00000E+00 1.00000E+00 1.56138E-02
  3.20276920000E+05  5.10084703000E+06  4.58600000000E+02 1.00000E+00 1.00000E+00 1.56122E-02
  3.20376920000E+05  5.10084703000E+06  4.47250000000E+02 1.00000E+00 1.00000E+00 1.56068E-02
  3.20476920000E+05  5.10084703000E+06  4.38570000000E+02 1.00000E+00 1.00000E+00 1.56127E-02
  3.19476920000E+05  5.10114703000E+06  4.54810000000E+02 1.00000E+00 1.00000E+00 1.56097E-02
  3.19576920000E+05  5.10114703000E+06  4.45750000000E+02 1.00000E+00 1.00000E+00 1.56083E-02
  3.19676920000E+05  5.10114703000E+06  4.55380000000E+02 1.00000E+00 1.00000E+00 1.56116E-02
  3.19776920000E+05  5.10114703000E+06  4.60980000000E+02 1.00000E+00 1.00000E+00 1.56131E-02
  3.19876920000E+05  5.10114703000E+06  4.61810000000E+02 1.00000E+00 1.00000E+00 1.56137E-02
  3.19976920000E+05  5.10114703000E+06  4.76190000000E+02 1.00000E+00 1.00000E+00 1.56144E-02
  3.20076920000E+05  5.10114703000E+06  4.73270000000E+02 1.00000E+00 1.00000E+00 1.56144E-02
  3.20176920000E+05  5.10114703000E+06  4.65160000000E+02 1.00000E+00 1.00000E+00 1.56140E-02
  3.20276920000E+05  5.10114703000E+06  4.61060000000E+02 1.00000E+00 1.00000E+00 1.56133E-02
  3.20376920000E+05  5.10114703000E+06  4.62660000000E+02 1.00000E+00 1.00000E+00 1.56126E-02
  3.20476920000E+05  5.10114703000E+06  4.50740000000E+02 1.00000E+00 1.00000E+00 1.56112E-02
  3.19576920000E+05  5.10104703000E+06  4.46760000000E+02 1.00000E+00 1.00000E+00 1.56084E-02
  3.19676920000E+05  5.10104703000E+06  4.61370000000E+02 1.00000E+00 1.00000E+00 1.56124E-02
  3.19776920000E+05  5.10104703000E+06  4.68220000000E+02 1.00000E+00 1.00000E+00 1.56138E-02
  3.19876920000E+05  5.10104703000E+06  4.73870000000E+02 1.00000E+00 1.00000E+00 1.56144E-02
  3.19976920000E+05  5.10104703000E+06  4.77810000000E+02 1.00000E+00 1.00000E+00 1.56147E-02
  3.20076920000E+05  5.10104703000E+06  4.75430000000E+02 1.00000E+00 1.00000E+00 1.56146E-02
  3.20176920000E+05  5.10104703000E+06  4.70550000000E+02 1.00000E+00 1.00000E+00 1.56142E-02
  3.20276920000E+05  5.10104703000E+06  4.64680000000E+02 1.00000E+00 1.00000E+00 1.56135E-02
  3.20376920000E+05  5.10104703000E+06  4.60210000000E+02 1.00000E+00 1.00000E+00 1.56124E-02
  3.20476920000E+05  5.10104703000E+06  4.53700000000E+02 1.00000E+00 1.00000E+00 1.56108E-02
  3.19576920000E+05  5.10134703000E+06  4.39200000000E+02 1.00000E+00 1.00000E+00 1.56105E-02
  3.19676920000E+05  5.10134703000E+06  4.45220000000E+02 1.00000E+00 1.00000E+00 1.56100E-02
  3.19776920000E+05  5.10134703000E+06  4.52450000000E+02 1.00000E+00 1.00000E+00 1.56131E-02
  3.19876920000E+05  5.10134703000E+06  4.51610000000E+02 1.00000E+00 1.00000E+00 1.56137E-02
  3.19976920000E+05  5.10134703000E+06  4.51350000000E+02 1.00000E+00 1.00000E+00 1.56142E-02
  3.20076920000E+05  5.10134703000E+06  4.55210000000E+02 1.00000E+00 1.00000E+00 1.56147E-02
  3.20176920000E+05  5.10134703000E+06  4.54660000000E+02 1.00000E+00 1.00000E+00 1.56139E-02
  3.20276920000E+05  5.10134703000E+06  4.49710000000E+02 1.00000E+00 1.00000E+00 1.56109E-02
  3.20376920000E+05  5.10134703000E+06  4.38650000000E+02 1.00000E+00 1.00000E+00 1.56186E-02
  3.19476920000E+05  5.10124703000E+06  4.40940000000E+02 1.00000E+00 1.00000E+00 1.56054E-02
  3.19576920000E+05  5.10124703000E+06  4.45900000000E+02 1.00000E+00 1.00000E+00 1.56065E-02
  3.19676920000E+05  5.10124703000E+06  4.50710000000E+02 1.00000E+00 1.00000E+00 1.56103E-02
  3.19776920000E+05  5.10124703000E+06  4.54390000000E+02 1.00000E+00 1.00000E+00 1.56122E-02
  3.19876920000E+05  5.10124703000E+06  4.48640000000E+02 1.00000E+00 1.00000E+00 1.56122E-02
  3.19976920000E+05  5.10124703000E+06  4.61770000000E+02 1.00000E+00 1.00000E+00 1.56138E-02
  3.20076920000E+05  5.10124703000E+06  4.61510000000E+02 1.00000E+00 1.00000E+00 1.56140E-02
  3.20176920000E+05  5.10124703000E+06  4.56970000000E+02 1.00000E+00 1.00000E+00 1.56134E-02
  3.20276920000E+05  5.10124703000E+06  4.56220000000E+02 1.00000E+00 1.00000E+00 1.56124E-02
  3.20376920000E+05  5.10124703000E+06  4.57870000000E+02 1.00000E+00 1.00000E+00 1.56114E-02
  3.19776920000E+05  5.10154703000E+06  4.46590000000E+02 1.00000E+00 1.00000E+00 9.37350E-03
  3.19876920000E+05  5.10154703000E+06  4.48840000000E+02 1.00000E+00 1.00000E+00 9.37327E-03
  3.19976920000E+05  5.10154703000E+06  4.46150000000E+02 1.00000E+00 1.00000E+00 9.37353E-03
  3.20076920000E+05  5.10154703000E+06  4.45730000000E+02 1.00000E+00 1.00000E+00 9.37359E-03
  3.20176920000E+05  5.10154703000E+06  4.41520000000E+02 1.00000E+00 1.00000E+00 9.37554E-03
  3.19776920000E+05  5.10164703000E+06  4.39560000000E+02 1.00000E+00 1.00000E+00 1.56203E-02
  3.19676920000E+05  5.10144703000E+06  4.45210000000E+02 1.00000E+00 1.00000E+00 9.37362E-03
  3.19776920000E+05  5.10144703000E+06  4.45990000000E+02 1.00000E+00 1.00000E+00 9.37347E-03
  3.19876920000E+05  5.10144703000E+06  4.48860000000E+02 1.00000E+00 1.00000E+00 9.37317E-03
  3.19976920000E+05  5.10144703000E+06  4.48990000000E+02 1.00000E+00 1.00000E+00 9.37315E-03
  3.20076920000E+05  5.10144703000E+06  4.51550000000E+02 1.00000E+00 1.00000E+00 9.37302E-03
  3.20176920000E+05  5.10144703000E+06  4.47940000000E+02 1.00000E+00 1.00000E+00 9.37324E-03
  3.19876920000E+05  5.10164703000E+06  4.46440000000E+02 1.00000E+00 1.00000E+00 1.56163E-02
  3.19976920000E+05  5.10164703000E+06  4.47500000000E+02 1.00000E+00 1.00000E+00 1.56164E-02
  3.20076920000E+05  5.10164703000E+06  4.41230000000E+02 1.00000E+00 1.00000E+00 1.56159E-02
  3.20076920000E+05  5.10244703000E+06  4.41490000000E+02 1.00000E+00 1.00000E+00 1.56018E-02
  3.20176920000E+05  5.10244703000E+06  4.40510000000E+02 1.00000E+00 1.00000E+00 1.56018E-02
  3.20376920000E+05  5.10244703000E+06  4.38520000000E+02 1.00000E+00 1.00000E+00 1.56159E-02
  3.20476920000E+05  5.10244703000E+06  4.43540000000E+02 1.00000E+00 1.00000E+00 1.56019E-02
  3.19676920000E+05  5.10264703000E+06  4.44560000000E+02 1.00000E+00 1.00000E+00 1.56080E-02
  3.20176920000E+05  5.10264703000E+06  4.41160000000E+02 1.00000E+00 1.00000E+00 1.56018E-02
  3.20276920000E+05  5.10264703000E+06  4.41550000000E+02 1.00000E+00 1.00000E+00 1.56012E-02
  3.20376920000E+05  5.10264703000E+06  4.44350000000E+02 1.00000E+00 1.00000E+00 1.56039E-02
  3.20476920000E+05  5.10264703000E+06  4.46540000000E+02 1.00000E+00 1.00000E+00 1.56059E-02
  3.20076920000E+05  5.10254703000E+06  4.39780000000E+02 1.00000E+00 1.00000E+00 1.56033E-02
  3.20176920000E+05  5.10254703000E+06  4.41960000000E+02 1.00000E+00 1.00000E+00 1.55998E-02
  3.20276920000E+05  5.10254703000E+06  4.40400000000E+02 1.00000E+00 1.00000E+00 1.56009E-02
  3.20376920000E+05  5.10254703000E+06  4.42280000000E+02 1.00000E+00 1.00000E+00 1.56004E-02
  3.20476920000E+05  5.10254703000E+06  4.44500000000E+02 1.00000E+00 1.00000E+00 1.56036E-02
  3.20376920000E+05  5.10284703000E+06  4.47610000000E+02 1.00000E+00 1.00000E+00 1.56080E-02
  3.20476920000E+05  5.10284703000E+06  4.48160000000E+02 1.00000E+00 1.00000E+00 1.56085E-02
  3.19576920000E+05  5.10274703000E+06  4.40720000000E+02 1.00000E+00 1.00000E+00 1.56038E-02
  3.20276920000E+05  5.10274703000E+06  4.41140000000E+02 1.00000E+00 1.00000E+00 1.56032E-02
  3.20376920000E+05  5.10274703000E+06  4.47520000000E+02 1.00000E+00 1.00000E+00 1.56065E-02
  3.20476920000E+05  5.10274703000E+06  4.47600000000E+02 1.00000E+00 1.00000E+00 1.56075E-02
  3.20376920000E+05  5.10294703000E+06  4.46110000000E+02 1.00000E+00 1.00000E+00 1.56080E-02
  3.20476920000E+05  5.10294703000E+06  4.48860000000E+02 1.00000E+00 1.00000E+00 1.56091E-02
  3.18676920000E+05  5.10094703000E+06  3.52010000000E+02 1.00000E+00 1.00000E+00 1.56145E-02
  3.18776920000E+05  5.10094703000E+06  3.71720000000E+02 1.00000E+00 1.00000E+00 1.56158E-02
  3.18876920000E+05  5.10094703000E+06  3.71530000000E+02 1.00000E+00 1.00000E+00 1.56157E-02
  3.18976920000E+05  5.10094703000E+06  3.75580000000E+02 1.00000E+00 1.00000E+00 1.56157E-02
  3.19076920000E+05  5.10094703000E+06  3.84600000000E+02 1.00000E+00 1.00000E+00 1.56140E-02
  3.19176920000E+05  5.10094703000E+06  3.87000000000E+02 1.00000E+00 1.00000E+00 1.56065E-02
  3.19276920000E+05  5.10094703000E+06  3.85050000000E+02 1.00000E+00 1.00000E+00 1.56132E-02
  3.19376920000E+05  5.10094703000E+06  3.83660000000E+02 1.00000E+00 1.00000E+00 1.56124E-02
  3.19476920000E+05  5.10094703000E+06  3.87000000000E+02 1.00000E+00 1.00000E+00 1.56010E-02
  3.19576920000E+05  5.10094703000E+06  3.87000000000E+02 1.00000E+00 1.00000E+00 1.56114E-02
  3.19676920000E+05  5.10094703000E+06  3.87000000000E+02 1.00000E+00 1.00000E+00 1.56153E-02
  3.19776920000E+05  5.10094703000E+06  3.87000000000E+02 1.00000E+00 1.00000E+00 1.56166E-02
  3.19876920000E+05  5.10094703000E+06  3.87000000000E+02 1.00000E+00 1.00000E+00 1.56171E-02
  3.19976920000E+05  5.10094703000E+06  3.87000000000E+02 1.00000E+00 1.00000E+00 1.56173E-02
  3.20076920000E+05  5.10094703000E+06  3.87000000000E+02 1.00000E+00 1.00000E+00 1.56172E-02
  3.20176920000E+05  5.10094703000E+06  3.87000000000E+02 1.00000E+00 1.00000E+00 1.56168E-02
  3.20276920000E+05  5.10094703000E+06  3.87000000000E+02 1.00000E+00 1.00000E+00 1.56160E-02
  3.20376920000E+05  5.10094703000E+06  3.87000000000E+02 1.00000E+00 1.00000E+00 1.56141E-02
  3.20476920000E+05  5.10094703000E+06  3.87000000000E+02 1.00000E+00 1.00000E+00 1.56109E-02
  3.18576920000E+05  5.10084703000E+06  3.45140000000E+02 1.00000E+00 1.00000E+00 1.56125E-02
  3.18676920000E+05  5.10084703000E+06  3.67510000000E+02 1.00000E+00 1.00000E+00 1.56155E-02
  3.18776920000E+05  5.10084703000E+06  3.84940000000E+02 1.00000E+00 1.00000E+00 1.56155E-02
  3.18876920000E+05  5.10084703000E+06  3.87000000000E+02 1.00000E+00 1.00000E+00 1.56127E-02
  3.18976920000E+05  5.10084703000E+06  3.87000000000E+02 1.00000E+00 1.00000E+00 1.56140E-02
  3.19076920000E+05  5.10084703000E+06  3.87000000000E+02 1.00000E+00 1.00000E+00 1.56141E-02
  3.19176920000E+05  5.10084703000E+06  3.87000000000E+02 1.00000E+00 1.00000E+00 1.56122E-02
  3.19276920000E+05  5.10084703000E+06  3.87000000000E+02 1.00000E+00 1.00000E+00 1.56121E-02
  3.19376920000E+05  5.10084703000E+06  3.87000000000E+02 1.00000E+00 1.00000E+00 1.56121E-02
  3.19476920000E+05  5.10084703000E+06  3.87000000000E+02 1.00000E+00 1.00000E+00 1.56100E-02
  3.19576920000E+05  5.10084703000E+06  3.87000000000E+02 1.00000E+00 1.00000E+00 1.56129E-02
  3.19676920000E+05  5.10084703000E+06  3.87000000000E+02 1.00000E+00 1.00000E+00 1.56155E-02
  3.19776920000E+05  5.10084703000E+06  3.87000000000E+02 1.00000E+00 1.00000E+00 1.56166E-02
  3.19876920000E+05  5.10084703000E+06  3.87000000000E+02 1.00000E+00 1.00000E+00 1.56171E-02
  3.19976920000E+05  5.10084703000E+06  3.87000000000E+02 1.00000E+00 1.00000E+00 1.56172E-02
  3.20076920000E+05  5.10084703000E+06  3.87000000000E+02 1.00000E+00 1.00000E+00 1.56170E-02
  3.20176920000E+05  5.10084703000E+06  3.87000000000E+02 1.00000E+00 1.00000E+00 1.56166E-02
  3.20276920000E+05  5.10084703000E+06  3.87000000000E+02 1.00000E+00 1.00000E+00 1.56152E-02
  3.20376920000E+05  5.10084703000E+06  3.87000000000E+02 1.00000E+00 1.00000E+00 1.56109E-02
  3.20476920000E+05  5.10084703000E+06  3.87000000000E+02 1.00000E+00 1.00000E+00 1.55985E-02
  3.19076920000E+05  5.10114703000E+06  3.52980000000E+02 1.00000E+00 1.00000E+00 1.56155E-02
  3.19176920000E+05  5.10114703000E+06  3.64600000000E+02 1.00000E+00 1.00000E+00 1.56160E-02
  3.19276920000E+05  5.10114703000E+06  3.66940000000E+02 1.00000E+00 1.00000E+00 1.56163E-02
  3.19376920000E+05  5.10114703000E+06  3.75440000000E+02 1.00000E+00 1.00000E+00 1.56158E-02
  3.19476920000E+05  5.10114703000E+06  3.87000000000E+02 1.00000E+00 1.00000E+00 1.56137E-02
  3.19576920000E+05  5.10114703000E+06  3.87000000000E+02 1.00000E+00 1.00000E+00 1.56132E-02
  3.19676920000E+05  5.10114703000E+06  3.87000000000E+02 1.00000E+00 1.00000E+00 1.56152E-02
  3.19776920000E+05  5.10114703000E+06  3.87000000000E+02 1.00000E+00 1.00000E+00 1.56162E-02
  3.19876920000E+05  5.10114703000E+06  3.87000000000E+02 1.00000E+00 1.00000E+00 1.56167E-02
  3.19976920000E+05  5.10114703000E+06  3.87000000000E+02 1.00000E+00 1.00000E+00 1.56171E-02
  3.20076920000E+05  5.10114703000E+06  3.87000000000E+02 1.00000E+00 1.00000E+00 1.56171E-02
  3.20176920000E+05  5.10114703000E+06  3.87000000000E+02 1.00000E+00 1.00000E+00 1.56168E-02
  3.20276920000E+05  5.10114703000E+06  3.87000000000E+02 1.00000E+00 1.00000E+00 1.56163E-02
  3.20376920000E+05  5.10114703000E+06  3.87000000000E+02 1.00000E+00 1.00000E+00 1.56158E-02
  3.20476920000E+05  5.10114703000E+06  3.87000000000E+02 1.00000E+00 1.00000E+00 1.56152E-02
  3.18676920000E+05  5.10104703000E+06  3.42570000000E+02 1.00000E+00 1.00000E+00 1.56112E-02
  3.18776920000E+05  5.10104703000E+06  3.58820000000E+02 1.00000E+00 1.00000E+00 1.56153E-02
  3.18876920000E+05  5.10104703000E+06  3.61100000000E+02 1.00000E+00 1.00000E+00 1.56160E-02
  3.18976920000E+05  5.10104703000E+06  3.63970000000E+02 1.00000E+00 1.00000E+00 1.56161E-02
  3.19076920000E+05  5.10104703000E+06  3.63810000000E+02 1.00000E+00 1.00000E+00 1.56157E-02
  3.19176920000E+05  5.10104703000E+06  3.71100000000E+02 1.00000E+00 1.00000E+00 1.56146E-02
  3.19276920000E+05  5.10104703000E+06  3.76320000000E+02 1.00000E+00 1.00000E+00 1.56155E-02
  3.19376920000E+05  5.10104703000E+06  3.79290000000E+02 1.00000E+00 1.00000E+00 1.56150E-02
  3.19476920000E+05  5.10104703000E+06  3.86250000000E+02 1.00000E+00 1.00000E+00 1.56126E-02
  3.19576920000E+05  5.10104703000E+06  3.87000000000E+02 1.00000E+00 1.00000E+00 1.56132E-02
  3.19676920000E+05  5.10104703000E+06  3.87000000000E+02 1.00000E+00 1.00000E+00 1.56155E-02
  3.19776920000E+05  5.10104703000E+06  3.87000000000E+02 1.00000E+00 1.00000E+00 1.56166E-02
  3.19876920000E+05  5.10104703000E+06  3.87000000000E+02 1.00000E+00 1.00000E+00 1.56170E-02
  3.19976920000E+05  5.10104703000E+06  3.87000000000E+02 1.00000E+00 1.00000E+00 1.56173E-02
  3.20076920000E+05  5.10104703000E+06  3.87000000000E+02 1.00000E+00 1.00000E+00 1.56172E-02
  3.20176920000E+05  5.10104703000E+06  3.87000000000E+02 1.00000E+00 1.00000E+00 1.56169E-02
  3.20276920000E+05  5.10104703000E+06  3.87000000000E+02 1.00000E+00 1.00000E+00 1.56164E-02
  3.20376920000E+05  5.10104703000E+06  3.87000000000E+02 1.00000E+00 1.00000E+00 1.56156E-02
  3.20476920000E+05  5.10104703000E+06  3.87000000000E+02 1.00000E+00 1.00000E+00 1.56145E-02
  3.19276920000E+05  5.10134703000E+06  3.61570000000E+02 1.00000E+00 1.00000E+00 1.56174E-02
  3.19376920000E+05  5.10134703000E+06  3.68420000000E+02 1.00000E+00 1.00000E+00 1.56175E-02
  3.19476920000E+05  5.10134703000E+06  3.81250000000E+02 1.00000E+00 1.00000E+00 1.56154E-02
  3.19576920000E+05  5.10134703000E+06  3.87000000000E+02 1.00000E+00 1.00000E+00 1.56088E-02
  3.19676920000E+05  5.10134703000E+06  3.87000000000E+02 1.00000E+00 1.00000E+00 1.56147E-02
  3.19776920000E+05  5.10134703000E+06  3.87000000000E+02 1.00000E+00 1.00000E+00 1.56169E-02
  3.19876920000E+05  5.10134703000E+06  3.87000000000E+02 1.00000E+00 1.00000E+00 1.56174E-02
  3.19976920000E+05  5.10134703000E+06  3.87000000000E+02 1.00000E+00 1.00000E+00 1.56177E-02
  3.20076920000E+05  5.10134703000E+06  3.87000000000E+02 1.00000E+00 1.00000E+00 1.56179E-02
  3.20176920000E+05  5.10134703000E+06  3.87000000000E+02 1.00000E+00 1.00000E+00 1.56174E-02
  3.20276920000E+05  5.10134703000E+06  3.87000000000E+02 1.00000E+00 1.00000E+00 1.56153E-02
  3.20376920000E+05  5.10134703000E+06  3.87000000000E+02 1.00000E+00 1.00000E+00 1.56069E-02
  3.20476920000E+05  5.10134703000E+06  3.79960000000E+02 1.00000E+00 1.00000E+00 1.56159E-02
  3.19276920000E+05  5.10144703000E+06  3.47120000000E+02 1.00000E+00 1.00000E+00 9.37378E-03
  3.19376920000E+05  5.10144703000E+06  3.62540000000E+02 1.00000E+00 1.00000E+00 9.37359E-03
  3.19176920000E+05  5.10124703000E+06  3.59440000000E+02 1.00000E+00 1.00000E+00 1.56163E-02
  3.19276920000E+05  5.10124703000E+06  3.64460000000E+02 1.00000E+00 1.00000E+00 1.56166E-02
  3.19376920000E+05  5.10124703000E+06  3.73770000000E+02 1.00000E+00 1.00000E+00 1.56158E-02
  3.19476920000E+05  5.10124703000E+06  3.87000000000E+02 1.00000E+00 1.00000E+00 1.56109E-02
  3.19576920000E+05  5.10124703000E+06  3.87000000000E+02 1.00000E+00 1.00000E+00 1.56120E-02
  3.19676920000E+05  5.10124703000E+06  3.87000000000E+02 1.00000E+00 1.00000E+00 1.56146E-02
  3.19776920000E+05  5.10124703000E+06  3.87000000000E+02 1.00000E+00 1.00000E+00 1.56159E-02
  3.19876920000E+05  5.10124703000E+06  3.87000000000E+02 1.00000E+00 1.00000E+00 1.56161E-02
  3.19976920000E+05  5.10124703000E+06  3.87000000000E+02 1.00000E+00 1.00000E+00 1.56169E-02
  3.20076920000E+05  5.10124703000E+06  3.87000000000E+02 1.00000E+00 1.00000E+00 1.56170E-02
  3.20176920000E+05  5.10124703000E+06  3.87000000000E+02 1.00000E+00 1.00000E+00 1.56166E-02
  3.20276920000E+05  5.10124703000E+06  3.87000000000E+02 1.00000E+00 1.00000E+00 1.56158E-02
  3.20376920000E+05  5.10124703000E+06  3.87000000000E+02 1.00000E+00 1.00000E+00 1.56145E-02
  3.20476920000E+05  5.10124703000E+06  3.86620000000E+02 1.00000E+00 1.00000E+00 1.56160E-02
  3.19676920000E+05  5.10154703000E+06  3.84990000000E+02 1.00000E+00 1.00000E+00 9.37341E-03
  3.19776920000E+05  5.10154703000E+06  3.87000000000E+02 1.00000E+00 1.00000E+00 9.37329E-03
  3.19876920000E+05  5.10154703000E+06  3.87000000000E+02 1.00000E+00 1.00000E+00 9.37326E-03
  3.19976920000E+05  5.10154703000E+06  3.87000000000E+02 1.00000E+00 1.00000E+00 9.37325E-03
  3.20076920000E+05  5.10154703000E+06  3.87000000000E+02 1.00000E+00 1.00000E+00 9.37326E-03
  3.20176920000E+05  5.10154703000E+06  3.87000000000E+02 1.00000E+00 1.00000E+00 9.37328E-03
  3.20276920000E+05  5.10154703000E+06  3.82060000000E+02 1.00000E+00 1.00000E+00 9.37342E-03
  3.20376920000E+05  5.10154703000E+06  3.75940000000E+02 1.00000E+00 1.00000E+00 9.37353E-03
  3.20476920000E+05  5.10154703000E+06  3.76000000000E+02 1.00000E+00 1.00000E+00 9.37355E-03
  3.19376920000E+05  5.10164703000E+06  3.53020000000E+02 1.00000E+00 1.00000E+00 9.37430E-03
  3.19476920000E+05  5.10164703000E+06  3.65860000000E+02 1.00000E+00 1.00000E+00 9.37392E-03
  3.19576920000E+05  5.10164703000E+06  3.72890000000E+02 1.00000E+00 1.00000E+00 9.37374E-03
  3.19676920000E+05  5.10164703000E+06  3.80200000000E+02 1.00000E+00 1.00000E+00 9.37357E-03
  3.19776920000E+05  5.10164703000E+06  3.87000000000E+02 1.00000E+00 1.00000E+00 9.37337E-03
  3.19476920000E+05  5.10144703000E+06  3.72640000000E+02 1.00000E+00 1.00000E+00 9.37348E-03
  3.19576920000E+05  5.10144703000E+06  3.82210000000E+02 1.00000E+00 1.00000E+00 9.37332E-03
  3.19676920000E+05  5.10144703000E+06  3.87000000000E+02 1.00000E+00 1.00000E+00 9.37319E-03
  3.19776920000E+05  5.10144703000E+06  3.87000000000E+02 1.00000E+00 1.00000E+00 9.37315E-03
  3.19876920000E+05  5.10144703000E+06  3.87000000000E+02 1.00000E+00 1.00000E+00 9.37314E-03
  3.19976920000E+05  5.10144703000E+06  3.87000000000E+02 1.00000E+00 1.00000E+00 9.37313E-03
  3.20076920000E+05  5.10144703000E+06  3.87000000000E+02 1.00000E+00 1.00000E+00 9.37314E-03
  3.20176920000E+05  5.10144703000E+06  3.87000000000E+02 1.00000E+00 1.00000E+00 9.37315E-03
  3.20276920000E+05  5.10144703000E+06  3.86750000000E+02 1.00000E+00 1.00000E+00 9.37323E-03
  3.20376920000E+05  5.10144703000E+06  3.80870000000E+02 1.00000E+00 1.00000E+00 9.37330E-03
  3.20476920000E+05  5.10144703000E+06  3.73980000000E+02 1.00000E+00 1.00000E+00 9.37342E-03
  3.19376920000E+05  5.10154703000E+06  3.59310000000E+02 1.00000E+00 1.00000E+00 9.37396E-03
  3.19476920000E+05  5.10154703000E+06  3.69760000000E+02 1.00000E+00 1.00000E+00 9.37373E-03
  3.19576920000E+05  5.10154703000E+06  3.77870000000E+02 1.00000E+00 1.00000E+00 9.37356E-03
  3.20076920000E+05  5.10174703000E+06  3.71440000000E+02 1.00000E+00 1.00000E+00 1.56191E-02
  3.20176920000E+05  5.10174703000E+06  3.59360000000E+02 1.00000E+00 1.00000E+00 1.56189E-02
  3.20276920000E+05  5.10174703000E+06  3.82380000000E+02 1.00000E+00 1.00000E+00 1.56190E-02
  3.20376920000E+05  5.10174703000E+06  3.78890000000E+02 1.00000E+00 1.00000E+00 1.56192E-02
  3.20476920000E+05  5.10174703000E+06  3.69780000000E+02 1.00000E+00 1.00000E+00 1.56192E-02
  3.18776920000E+05  5.10184703000E+06  3.39290000000E+02 1.00000E+00 1.00000E+00 1.56104E-02
  3.18876920000E+05  5.10184703000E+06  3.38160000000E+02 1.00000E+00 1.00000E+00 1.56386E-02
  3.18976920000E+05  5.10184703000E+06  3.41420000000E+02 1.00000E+00 1.00000E+00 1.56063E-02
  3.19076920000E+05  5.10184703000E+06  3.42030000000E+02 1.00000E+00 1.00000E+00 1.56084E-02
  3.19176920000E+05  5.10184703000E+06  3.41080000000E+02 1.00000E+00 1.00000E+00 1.56097E-02
  3.19276920000E+05  5.10184703000E+06  3.48000000000E+02 1.00000E+00 1.00000E+00 1.56134E-02
  3.19376920000E+05  5.10184703000E+06  3.55080000000E+02 1.00000E+00 1.00000E+00 1.56159E-02
  3.19476920000E+05  5.10184703000E+06  3.63250000000E+02 1.00000E+00 1.00000E+00 1.56172E-02
  3.19576920000E+05  5.10184703000E+06  3.66590000000E+02 1.00000E+00 1.00000E+00 1.56176E-02
  3.19676920000E+05  5.10184703000E+06  3.67600000000E+02 1.00000E+00 1.00000E+00 1.56178E-02
  3.19776920000E+05  5.10184703000E+06  3.70390000000E+02 1.00000E+00 1.00000E+00 1.56179E-02
  3.19876920000E+05  5.10184703000E+06  3.73360000000E+02 1.00000E+00 1.00000E+00 1.56178E-02
  3.19976920000E+05  5.10184703000E+06  3.64020000000E+02 1.00000E+00 1.00000E+00 1.56175E-02
  3.20076920000E+05  5.10184703000E+06  3.52810000000E+02 1.00000E+00 1.00000E+00 1.56167E-02
  3.20176920000E+05  5.10184703000E+06  3.54520000000E+02 1.00000E+00 1.00000E+00 1.56167E-02
  3.19876920000E+05  5.10164703000E+06  3.87000000000E+02 1.00000E+00 1.00000E+00 9.37336E-03
  3.19976920000E+05  5.10164703000E+06  3.87000000000E+02 1.00000E+00 1.00000E+00 9.37336E-03
  3.20076920000E+05  5.10164703000E+06  3.87000000000E+02 1.00000E+00 1.00000E+00 9.37335E-03
  3.20176920000E+05  5.10164703000E+06  3.81730000000E+02 1.00000E+00 1.00000E+00 9.37349E-03
  3.20276920000E+05  5.10164703000E+06  3.79380000000E+02 1.00000E+00 1.00000E+00 9.37356E-03
  3.20376920000E+05  5.10164703000E+06  3.76330000000E+02 1.00000E+00 1.00000E+00 9.37363E-03
  3.20476920000E+05  5.10164703000E+06  3.75880000000E+02 1.00000E+00 1.00000E+00 9.37366E-03
  3.18576920000E+05  5.10174703000E+06  3.42580000000E+02 1.00000E+00 1.00000E+00 1.56131E-02
  3.18676920000E+05  5.10174703000E+06  3.44520000000E+02 1.00000E+00 1.00000E+00 1.56133E-02
  3.18876920000E+05  5.10174703000E+06  3.41810000000E+02 1.00000E+00 1.00000E+00 1.56089E-02
  3.19376920000E+05  5.10174703000E+06  3.52660000000E+02 1.00000E+00 1.00000E+00 1.56183E-02
  3.19476920000E+05  5.10174703000E+06  3.62500000000E+02 1.00000E+00 1.00000E+00 1.56189E-02
  3.19576920000E+05  5.10174703000E+06  3.67870000000E+02 1.00000E+00 1.00000E+00 1.56191E-02
  3.19676920000E+05  5.10174703000E+06  3.68170000000E+02 1.00000E+00 1.00000E+00 1.56192E-02
  3.19776920000E+05  5.10174703000E+06  3.76410000000E+02 1.00000E+00 1.00000E+00 1.56192E-02
  3.19876920000E+05  5.10174703000E+06  3.76930000000E+02 1.00000E+00 1.00000E+00 1.56192E-02
  3.19976920000E+05  5.10174703000E+06  3.86460000000E+02 1.00000E+00 1.00000E+00 1.56191E-02
  3.20476920000E+05  5.10194703000E+06  3.67040000000E+02 1.00000E+00 1.00000E+00 1.56169E-02
  3.19076920000E+05  5.10204703000E+06  3.39690000000E+02 1.00000E+00 1.00000E+00 1.56038E-02
  3.19376920000E+05  5.10204703000E+06  3.50700000000E+02 1.00000E+00 1.00000E+00 1.56136E-02
  3.19476920000E+05  5.10204703000E+06  3.59660000000E+02 1.00000E+00 1.00000E+00 1.56158E-02
  3.19576920000E+05  5.10204703000E+06  3.62370000000E+02 1.00000E+00 1.00000E+00 1.56166E-02
  3.19676920000E+05  5.10204703000E+06  3.63500000000E+02 1.00000E+00 1.00000E+00 1.56169E-02
  3.19776920000E+05  5.10204703000E+06  3.67930000000E+02 1.00000E+00 1.00000E+00 1.56170E-02
  3.19876920000E+05  5.10204703000E+06  3.61110000000E+02 1.00000E+00 1.00000E+00 1.56166E-02
  3.19976920000E+05  5.10204703000E+06  3.52800000000E+02 1.00000E+00 1.00000E+00 1.56156E-02
  3.20076920000E+05  5.10204703000E+06  3.52790000000E+02 1.00000E+00 1.00000E+00 1.56152E-02
  3.20176920000E+05  5.10204703000E+06  3.52770000000E+02 1.00000E+00 1.00000E+00 1.56151E-02
  3.20276920000E+05  5.10204703000E+06  3.52760000000E+02 1.00000E+00 1.00000E+00 1.56152E-02
  3.20376920000E+05  5.10204703000E+06  3.52750000000E+02 1.00000E+00 1.00000E+00 1.56155E-02
  3.20476920000E+05  5.10204703000E+06  3.69110000000E+02 1.00000E+00 1.00000E+00 1.56166E-02
  3.20276920000E+05  5.10184703000E+06  3.67930000000E+02 1.00000E+00 1.00000E+00 1.56174E-02
  3.20376920000E+05  5.10184703000E+06  3.63630000000E+02 1.00000E+00 1.00000E+00 1.56176E-02
  3.20476920000E+05  5.10184703000E+06  3.66550000000E+02 1.00000E+00 1.00000E+00 1.56177E-02
  3.19276920000E+05  5.10194703000E+06  3.48390000000E+02 1.00000E+00 1.00000E+00 1.56130E-02
  3.19376920000E+05  5.10194703000E+06  3.51870000000E+02 1.00000E+00 1.00000E+00 1.56146E-02
  3.19476920000E+05  5.10194703000E+06  3.60910000000E+02 1.00000E+00 1.00000E+00 1.56163E-02
  3.19576920000E+05  5.10194703000E+06  3.64460000000E+02 1.00000E+00 1.00000E+00 1.56169E-02
  3.19676920000E+05  5.10194703000E+06  3.70900000000E+02 1.00000E+00 1.00000E+00 1.56172E-02
  3.19776920000E+05  5.10194703000E+06  3.72570000000E+02 1.00000E+00 1.00000E+00 1.56172E-02
  3.19876920000E+05  5.10194703000E+06  3.64570000000E+02 1.00000E+00 1.00000E+00 1.56170E-02
  3.19976920000E+05  5.10194703000E+06  3.52810000000E+02 1.00000E+00 1.00000E+00 1.56160E-02
  3.20076920000E+05  5.10194703000E+06  3.52780000000E+02 1.00000E+00 1.00000E+00 1.56155E-02
  3.20176920000E+05  5.10194703000E+06  3.52770000000E+02 1.00000E+00 1.00000E+00 1.56155E-02
  3.20276920000E+05  5.10194703000E+06  3.52750000000E+02 1.00000E+00 1.00000E+00 1.56157E-02
  3.20376920000E+05  5.10194703000E+06  3.52760000000E+02 1.00000E+00 1.00000E+00 1.56160E-02
  3.18776920000E+05  5.10224703000E+06  3.39260000000E+02 1.00000E+00 1.00000E+00 1.56115E-02
  3.18876920000E+05  5.10224703000E+06  3.47780000000E+02 1.00000E+00 1.00000E+00 1.56076E-02
  3.18976920000E+05  5.10224703000E+06  3.42280000000E+02 1.00000E+00 1.00000E+00 1.56042E-02
  3.19076920000E+05  5.10224703000E+06  3.42150000000E+02 1.00000E+00 1.00000E+00 1.56022E-02
  3.19176920000E+05  5.10224703000E+06  3.46350000000E+02 1.00000E+00 1.00000E+00 1.56066E-02
  3.19276920000E+05  5.10224703000E+06  3.51560000000E+02 1.00000E+00 1.00000E+00 1.56103E-02
  3.19376920000E+05  5.10224703000E+06  3.47500000000E+02 1.00000E+00 1.00000E+00 1.56127E-02
  3.19476920000E+05  5.10224703000E+06  3.67350000000E+02 1.00000E+00 1.00000E+00 1.56160E-02
  3.19576920000E+05  5.10224703000E+06  3.71420000000E+02 1.00000E+00 1.00000E+00 1.56168E-02
  3.19676920000E+05  5.10224703000E+06  3.78570000000E+02 1.00000E+00 1.00000E+00 1.56170E-02
  3.19776920000E+05  5.10224703000E+06  3.74620000000E+02 1.00000E+00 1.00000E+00 1.56171E-02
  3.19876920000E+05  5.10224703000E+06  3.73160000000E+02 1.00000E+00 1.00000E+00 1.56169E-02
  3.19976920000E+05  5.10224703000E+06  3.73120000000E+02 1.00000E+00 1.00000E+00 1.56165E-02