Title="TOUGHREACT V4.13omp : Mineral Reactive Surface Area (m^2/kg H2O)"
Variables= "X(m)"   "Y(m)"   "Z(m)"    "SatLiq" "A_fracmtx"  "A_Factor"      "magnesite"         "quartz"      "kaolinite"         "illite"     "oligoclase"    "smectite-na"     "k-feldspar"       "chlorite"       "hematite"       "pyrite-2"    "smectite-ca"     "albite~low"     "dolomite-2"     "siderite-2"     "ankerite-2"      "dawsonite"
Zone T= "3.15569000E+07 sec" I=    1120 J=       1 K=       1 F=Point
  5.00000000000E-01  0.00000000000E+00 -1.00000000000E+00 5.35600E-01 1.00000E+00 2.84903E-03  1.2877E-05  2.8250E+00  1.4905E+00  7.5384E-01  9.6310E-01  3.0739E+00  3.8530E-01  2.5327E-01  6.3444E-02  2.2852E-05  1.2360E-04  1.1791E-05  1.2474E-05  1.5486E-05  1.3265E-05  1.1255E-05
  5.00000000000E-01  0.00000000000E+00 -3.00000000000E+00 5.67437E-01 1.00000E+00 2.84900E-03  1.2877E-05  2.8250E+00  1.4905E+00  7.5395E-01  9.6307E-01  3.0740E+00  3.8530E-01  2.5326E-01  6.3443E-02  2.2851E-05  1.2360E-04  1.1791E-05  1.2474E-05  1.5486E-05  1.3265E-05  1.1255E-05
  5.00000000000E-01  0.00000000000E+00 -5.00000000000E+00 5.92011E-01 1.00000E+00 2.84892E-03  1.2877E-05  2.8249E+00  1.4905E+00  7.5402E-01  9.6304E-01  3.0741E+00  3.8529E-01  2.5325E-01  6.3441E-02  2.2851E-05  1.2359E-04  1.1791E-05  1.2474E-05  1.5485E-05  1.3264E-05  1.1255E-05
  5.00000000000E-01  0.00000000000E+00 -7.00000000000E+00 6.12561E-01 1.00000E+00 2.84882E-03  1.2876E-05  2.8248E+00  1.4904E+00  7.5404E-01  9.6299E-01  3.0741E+00  3.8527E-01  2.5323E-01  6.3439E-02  2.2850E-05  1.2359E-04  1.1791E-05  1.2473E-05  1.5485E-05  1.3264E-05  1.1254E-05
  5.00000000000E-01  0.00000000000E+00 -9.00000000000E+00 6.29310E-01 1.00000E+00 2.84871E-03  1.2876E-05  2.8247E+00  1.4904E+00  7.5404E-01  9.6295E-01  3.0740E+00  3.8526E-01  2.5322E-01  6.3437E-02  2.2849E-05  1.2358E-04  1.1790E-05  1.2473E-05  1.5484E-05  1.3263E-05  1.1254E-05
  5.00000000000E-01  0.00000000000E+00 -1.10000000000E+01 6.41284E-01 1.00000E+00 2.84860E-03  1.2875E-05  2.8246E+00  1.4903E+00  7.5402E-01  9.6291E-01  3.0739E+00  3.8524E-01  2.5321E-01  6.3434E-02  2.2848E-05  1.2358E-04  1.1790E-05  1.2472E-05  1.5484E-05  1.3263E-05  1.1253E-05
  5.00000000000E-01  0.00000000000E+00 -1.30000000000E+01 6.47334E-01 1.00000E+00 2.84848E-03  1.2875E-05  2.8245E+00  1.4902E+00  7.5398E-01  9.6287E-01  3.0738E+00  3.8523E-01  2.5320E-01  6.3432E-02  2.2847E-05  1.2357E-04  1.1789E-05  1.2472E-05  1.5483E-05  1.3262E-05  1.1253E-05
  5.00000000000E-01  0.00000000000E+00 -1.50000000000E+01 6.46838E-01 1.00000E+00 2.84830E-03  1.2874E-05  2.8243E+00  1.4901E+00  7.5391E-01  9.6282E-01  3.0736E+00  3.8520E-01  2.5318E-01  6.3428E-02  2.2846E-05  1.2357E-04  1.1788E-05  1.2471E-05  1.5482E-05  1.3261E-05  1.1252E-05
  5.00000000000E-01  0.00000000000E+00 -1.70000000000E+01 6.39588E-01 1.00000E+00 2.84814E-03  1.2873E-05  2.8241E+00  1.4901E+00  7.5382E-01  9.6277E-01  3.0733E+00  3.8518E-01  2.5317E-01  6.3424E-02  2.2844E-05  1.2356E-04  1.1788E-05  1.2470E-05  1.5481E-05  1.3261E-05  1.1252E-05
  5.00000000000E-01  0.00000000000E+00 -1.90000000000E+01 6.24771E-01 1.00000E+00 2.84799E-03  1.2873E-05  2.8240E+00  1.4900E+00  7.5373E-01  9.6272E-01  3.0731E+00  3.8516E-01  2.5316E-01  6.3420E-02  2.2843E-05  1.2355E-04  1.1787E-05  1.2470E-05  1.5480E-05  1.3260E-05  1.1251E-05
  5.00000000000E-01  0.00000000000E+00 -2.10000000000E+01 5.98253E-01 1.00000E+00 2.84781E-03  1.2872E-05  2.8238E+00  1.4899E+00  7.5360E-01  9.6267E-01  3.0728E+00  3.8514E-01  2.5315E-01  6.3417E-02  2.2842E-05  1.2355E-04  1.1786E-05  1.2469E-05  1.5479E-05  1.3259E-05  1.1250E-05
  5.00000000000E-01  0.00000000000E+00 -2.30000000000E+01 5.38730E-01 1.00000E+00 2.84692E-03  1.2868E-05  2.8229E+00  1.4894E+00  7.5325E-01  9.6239E-01  3.0717E+00  3.8502E-01  2.5308E-01  6.3397E-02  2.2835E-05  1.2351E-04  1.1783E-05  1.2465E-05  1.5475E-05  1.3255E-05  1.1247E-05
  5.00000000000E-01  0.00000000000E+00 -2.50000000000E+01 2.96874E-01 1.00000E+00 2.77581E-03  1.2546E-05  2.7523E+00  1.4521E+00  7.3406E-01  9.3837E-01  2.9945E+00  3.7539E-01  2.4677E-01  6.1812E-02  2.2264E-05  1.2042E-04  1.1488E-05  1.2153E-05  1.5088E-05  1.2924E-05  1.0966E-05
  5.00000000000E-01  0.00000000000E+00 -2.70000000000E+01 0.00000E+00 1.00000E+00 0.00000E+00  1.1158E-05  2.4478E+00  1.2914E+00  6.5198E-01  8.3468E-01  2.6620E+00  3.3387E-01  2.1953E-01  5.4974E-02  1.9801E-05  1.0710E-04  1.0217E-05  1.0809E-05  1.3419E-05  1.1494E-05  9.7524E-06
  5.00000000000E-01  0.00000000000E+00 -2.90000000000E+01 0.00000E+00 1.00000E+00 0.00000E+00  1.1155E-05  2.4472E+00  1.2911E+00  6.5128E-01  8.3455E-01  2.6606E+00  3.3379E-01  2.1951E-01  5.4960E-02  1.9796E-05  1.0707E-04  1.0215E-05  1.0806E-05  1.3415E-05  1.1491E-05  9.7500E-06
  5.00000000000E-01  0.00000000000E+00 -3.10000000000E+01 0.00000E+00 1.00000E+00 0.00000E+00  1.1153E-05  2.4468E+00  1.2908E+00  6.5098E-01  8.3442E-01  2.6599E+00  3.3373E-01  2.1948E-01  5.4950E-02  1.9792E-05  1.0705E-04  1.0213E-05  1.0804E-05  1.3413E-05  1.1489E-05  9.7482E-06
  5.00000000000E-01  0.00000000000E+00 -3.30000000000E+01 0.00000E+00 1.00000E+00 0.00000E+00  1.1286E-05  2.4759E+00  1.3061E+00  6.5868E-01  8.4434E-01  2.6915E+00  3.3770E-01  2.2209E-01  5.5603E-02  2.0028E-05  1.0832E-04  1.0334E-05  1.0933E-05  1.3572E-05  1.1625E-05  9.8641E-06
  5.00000000000E-01  0.00000000000E+00 -3.50000000000E+01 0.00000E+00 1.00000E+00 0.00000E+00  1.1252E-05  2.4685E+00  1.3022E+00  6.5672E-01  8.4183E-01  2.6835E+00  3.3669E-01  2.2143E-01  5.5438E-02  1.9968E-05  1.0800E-04  1.0303E-05  1.0900E-05  1.3532E-05  1.1591E-05  9.8347E-06
  5.00000000000E-01  0.00000000000E+00 -3.70000000000E+01 0.00000E+00 1.00000E+00 0.00000E+00  1.1243E-05  2.4665E+00  1.3012E+00  6.5619E-01  8.4115E-01  2.6813E+00  3.3642E-01  2.2126E-01  5.5393E-02  1.9952E-05  1.0791E-04  1.0295E-05  1.0891E-05  1.3521E-05  1.1582E-05  9.8268E-06
  5.00000000000E-01  0.00000000000E+00 -3.90000000000E+01 0.00000E+00 1.00000E+00 0.00000E+00  1.1242E-05  2.4664E+00  1.3011E+00  6.5615E-01  8.4109E-01  2.6812E+00  3.3640E-01  2.2124E-01  5.5389E-02  1.9951E-05  1.0791E-04  1.0295E-05  1.0891E-05  1.3520E-05  1.1581E-05  9.8262E-06
  1.60700000000E+00  0.00000000000E+00 -1.00000000000E+00 5.35599E-01 1.00000E+00 2.84903E-03  1.2877E-05  2.8250E+00  1.4905E+00  7.5384E-01  9.6310E-01  3.0739E+00  3.8531E-01  2.5327E-01  6.3444E-02  2.2852E-05  1.2360E-04  1.1792E-05  1.2474E-05  1.5486E-05  1.3265E-05  1.1255E-05
  1.60700000000E+00  0.00000000000E+00 -3.00000000000E+00 5.67435E-01 1.00000E+00 2.84900E-03  1.2877E-05  2.8250E+00  1.4905E+00  7.5396E-01  9.6307E-01  3.0740E+00  3.8530E-01  2.5326E-01  6.3443E-02  2.2851E-05  1.2360E-04  1.1791E-05  1.2474E-05  1.5486E-05  1.3265E-05  1.1255E-05
  1.60700000000E+00  0.00000000000E+00 -5.00000000000E+00 5.92009E-01 1.00000E+00 2.84892E-03  1.2877E-05  2.8249E+00  1.4905E+00  7.5402E-01  9.6304E-01  3.0741E+00  3.8529E-01  2.5325E-01  6.3441E-02  2.2851E-05  1.2359E-04  1.1791E-05  1.2474E-05  1.5485E-05  1.3264E-05  1.1255E-05
  1.60700000000E+00  0.00000000000E+00 -7.00000000000E+00 6.12558E-01 1.00000E+00 2.84882E-03  1.2876E-05  2.8248E+00  1.4904E+00  7.5404E-01  9.6299E-01  3.0741E+00  3.8527E-01  2.5323E-01  6.3439E-02  2.2850E-05  1.2359E-04  1.1791E-05  1.2473E-05  1.5485E-05  1.3264E-05  1.1254E-05
  1.60700000000E+00  0.00000000000E+00 -9.00000000000E+00 6.29309E-01 1.00000E+00 2.84872E-03  1.2876E-05  2.8247E+00  1.4904E+00  7.5404E-01  9.6295E-01  3.0740E+00  3.8526E-01  2.5322E-01  6.3437E-02  2.2849E-05  1.2358E-04  1.1790E-05  1.2473E-05  1.5484E-05  1.3263E-05  1.1254E-05
  1.60700000000E+00  0.00000000000E+00 -1.10000000000E+01 6.41288E-01 1.00000E+00 2.84860E-03  1.2875E-05  2.8246E+00  1.4903E+00  7.5402E-01  9.6291E-01  3.0739E+00  3.8524E-01  2.5321E-01  6.3434E-02  2.2848E-05  1.2358E-04  1.1790E-05  1.2472E-05  1.5484E-05  1.3263E-05  1.1253E-05
  1.60700000000E+00  0.00000000000E+00 -1.30000000000E+01 6.47350E-01 1.00000E+00 2.84849E-03  1.2875E-05  2.8245E+00  1.4902E+00  7.5398E-01  9.6288E-01  3.0738E+00  3.8523E-01  2.5320E-01  6.3432E-02  2.2847E-05  1.2357E-04  1.1789E-05  1.2472E-05  1.5483E-05  1.3262E-05  1.1253E-05
  1.60700000000E+00  0.00000000000E+00 -1.50000000000E+01 6.46874E-01 1.00000E+00 2.84831E-03  1.2874E-05  2.8243E+00  1.4901E+00  7.5391E-01  9.6282E-01  3.0736E+00  3.8520E-01  2.5318E-01  6.3428E-02  2.2846E-05  1.2357E-04  1.1789E-05  1.2471E-05  1.5482E-05  1.3261E-05  1.1252E-05
  1.60700000000E+00  0.00000000000E+00 -1.70000000000E+01 6.39666E-01 1.00000E+00 2.84815E-03  1.2873E-05  2.8241E+00  1.4901E+00  7.5382E-01  9.6277E-01  3.0734E+00  3.8518E-01  2.5317E-01  6.3424E-02  2.2845E-05  1.2356E-04  1.1788E-05  1.2470E-05  1.5481E-05  1.3261E-05  1.1252E-05
  1.60700000000E+00  0.00000000000E+00 -1.90000000000E+01 6.24949E-01 1.00000E+00 2.84799E-03  1.2873E-05  2.8240E+00  1.4900E+00  7.5373E-01  9.6272E-01  3.0731E+00  3.8516E-01  2.5316E-01  6.3421E-02  2.2843E-05  1.2355E-04  1.1787E-05  1.2470E-05  1.5480E-05  1.3260E-05  1.1251E-05
  1.60700000000E+00  0.00000000000E+00 -2.10000000000E+01 5.98811E-01 1.00000E+00 2.84782E-03  1.2872E-05  2.8238E+00  1.4899E+00  7.5361E-01  9.6267E-01  3.0728E+00  3.8514E-01  2.5315E-01  6.3417E-02  2.2842E-05  1.2355E-04  1.1786E-05  1.2469E-05  1.5479E-05  1.3259E-05  1.1250E-05
  1.60700000000E+00  0.00000000000E+00 -2.30000000000E+01 5.41972E-01 1.00000E+00 2.84718E-03  1.2869E-05  2.8232E+00  1.4895E+00  7.5332E-01  9.6247E-01  3.0720E+00  3.8505E-01  2.5310E-01  6.3402E-02  2.2837E-05  1.2352E-04  1.1784E-05  1.2466E-05  1.5476E-05  1.3256E-05  1.1248E-05
  1.60700000000E+00  0.00000000000E+00 -2.50000000000E+01 3.19590E-01 1.00000E+00 2.79532E-03  1.2634E-05  2.7717E+00  1.4624E+00  7.3926E-01  9.4496E-01  3.0156E+00  3.7803E-01  2.4851E-01  6.2246E-02  2.2420E-05  1.2127E-04  1.1569E-05  1.2239E-05  1.5194E-05  1.3014E-05  1.1043E-05
  1.60700000000E+00  0.00000000000E+00 -2.70000000000E+01 0.00000E+00 1.00000E+00 0.00000E+00  1.1180E-05  2.4527E+00  1.2940E+00  6.5334E-01  8.3632E-01  2.6674E+00  3.3453E-01  2.1996E-01  5.5082E-02  1.9840E-05  1.0731E-04  1.0237E-05  1.0830E-05  1.3445E-05  1.1517E-05  9.7717E-06
  1.60700000000E+00  0.00000000000E+00 -2.90000000000E+01 0.00000E+00 1.00000E+00 0.00000E+00  1.1223E-05  2.4620E+00  1.2989E+00  6.5527E-01  8.3958E-01  2.6767E+00  3.3581E-01  2.2083E-01  5.5292E-02  1.9915E-05  1.0772E-04  1.0276E-05  1.0871E-05  1.3496E-05  1.1560E-05  9.8089E-06
  1.60700000000E+00  0.00000000000E+00 -3.10000000000E+01 0.00000E+00 1.00000E+00 0.00000E+00  1.1154E-05  2.4469E+00  1.2909E+00  6.5105E-01  8.3446E-01  2.6601E+00  3.3375E-01  2.1949E-01  5.4953E-02  1.9793E-05  1.0706E-04  1.0213E-05  1.0805E-05  1.3414E-05  1.1490E-05  9.7488E-06
  1.60700000000E+00  0.00000000000E+00 -3.30000000000E+01 0.00000E+00 1.00000E+00 0.00000E+00  1.1150E-05  2.4461E+00  1.2904E+00  6.5076E-01  8.3417E-01  2.6591E+00  3.3363E-01  2.1942E-01  5.4934E-02  1.9786E-05  1.0702E-04  1.0210E-05  1.0801E-05  1.3409E-05  1.1485E-05  9.7453E-06
  1.60700000000E+00  0.00000000000E+00 -3.50000000000E+01 0.00000E+00 1.00000E+00 0.00000E+00  1.1317E-05  2.4828E+00  1.3098E+00  6.6053E-01  8.4670E-01  2.6990E+00  3.3864E-01  2.2271E-01  5.5758E-02  2.0083E-05  1.0863E-04  1.0363E-05  1.0963E-05  1.3610E-05  1.1658E-05  9.8916E-06
  1.60700000000E+00  0.00000000000E+00 -3.70000000000E+01 0.00000E+00 1.00000E+00 0.00000E+00  1.1285E-05  2.4756E+00  1.3060E+00  6.5863E-01  8.4426E-01  2.6913E+00  3.3767E-01  2.2207E-01  5.5598E-02  2.0026E-05  1.0831E-04  1.0333E-05  1.0932E-05  1.3571E-05  1.1624E-05  9.8631E-06
  1.60700000000E+00  0.00000000000E+00 -3.90000000000E+01 0.00000E+00 1.00000E+00 0.00000E+00  1.1293E-05  2.4774E+00  1.3069E+00  6.5909E-01  8.4486E-01  2.6932E+00  3.3791E-01  2.2223E-01  5.5637E-02  2.0040E-05  1.0839E-04  1.0341E-05  1.0939E-05  1.3581E-05  1.1633E-05  9.8701E-06
  2.95300000000E+00  0.00000000000E+00 -1.00000000000E+00 5.35598E-01 1.00000E+00 2.84903E-03  1.2877E-05  2.8250E+00  1.4905E+00  7.5384E-01  9.6310E-01  3.0739E+00  3.8531E-01  2.5327E-01  6.3444E-02  2.2852E-05  1.2360E-04  1.1792E-05  1.2474E-05  1.5486E-05  1.3265E-05  1.1255E-05
  2.95300000000E+00  0.00000000000E+00 -3.00000000000E+00 5.67431E-01 1.00000E+00 2.84900E-03  1.2877E-05  2.8250E+00  1.4905E+00  7.5396E-01  9.6307E-01  3.0740E+00  3.8530E-01  2.5326E-01  6.3443E-02  2.2851E-05  1.2360E-04  1.1791E-05  1.2474E-05  1.5486E-05  1.3265E-05  1.1255E-05
  2.95300000000E+00  0.00000000000E+00 -5.00000000000E+00 5.92002E-01 1.00000E+00 2.84893E-03  1.2877E-05  2.8249E+00  1.4905E+00  7.5402E-01  9.6304E-01  3.0741E+00  3.8529E-01  2.5325E-01  6.3441E-02  2.2851E-05  1.2359E-04  1.1791E-05  1.2474E-05  1.5486E-05  1.3264E-05  1.1255E-05
  2.95300000000E+00  0.00000000000E+00 -7.00000000000E+00 6.12550E-01 1.00000E+00 2.84883E-03  1.2876E-05  2.8248E+00  1.4904E+00  7.5404E-01  9.6300E-01  3.0741E+00  3.8528E-01  2.5323E-01  6.3439E-02  2.2850E-05  1.2359E-04  1.1791E-05  1.2473E-05  1.5485E-05  1.3264E-05  1.1254E-05
  2.95300000000E+00  0.00000000000E+00 -9.00000000000E+00 6.29305E-01 1.00000E+00 2.84872E-03  1.2876E-05  2.8247E+00  1.4904E+00  7.5405E-01  9.6296E-01  3.0740E+00  3.8526E-01  2.5322E-01  6.3437E-02  2.2849E-05  1.2358E-04  1.1790E-05  1.2473E-05  1.5484E-05  1.3263E-05  1.1254E-05
  2.95300000000E+00  0.00000000000E+00 -1.10000000000E+01 6.41300E-01 1.00000E+00 2.84860E-03  1.2875E-05  2.8246E+00  1.4903E+00  7.5402E-01  9.6291E-01  3.0739E+00  3.8524E-01  2.5321E-01  6.3434E-02  2.2848E-05  1.2358E-04  1.1790E-05  1.2472E-05  1.5484E-05  1.3263E-05  1.1253E-05
  2.95300000000E+00  0.00000000000E+00 -1.30000000000E+01 6.47392E-01 1.00000E+00 2.84850E-03  1.2875E-05  2.8245E+00  1.4903E+00  7.5398E-01  9.6288E-01  3.0738E+00  3.8523E-01  2.5320E-01  6.3432E-02  2.2847E-05  1.2358E-04  1.1789E-05  1.2472E-05  1.5483E-05  1.3262E-05  1.1253E-05
  2.95300000000E+00  0.00000000000E+00 -1.50000000000E+01 6.46973E-01 1.00000E+00 2.84832E-03  1.2874E-05  2.8243E+00  1.4902E+00  7.5391E-01  9.6282E-01  3.0736E+00  3.8521E-01  2.5318E-01  6.3428E-02  2.2846E-05  1.2357E-04  1.1789E-05  1.2471E-05  1.5482E-05  1.3261E-05  1.1252E-05
  2.95300000000E+00  0.00000000000E+00 -1.70000000000E+01 6.39871E-01 1.00000E+00 2.84815E-03  1.2873E-05  2.8241E+00  1.4901E+00  7.5383E-01  9.6277E-01  3.0734E+00  3.8518E-01  2.5317E-01  6.3424E-02  2.2845E-05  1.2356E-04  1.1788E-05  1.2470E-05  1.5481E-05  1.3261E-05  1.1252E-05
  2.95300000000E+00  0.00000000000E+00 -1.90000000000E+01 6.25412E-01 1.00000E+00 2.84802E-03  1.2873E-05  2.8240E+00  1.4900E+00  7.5374E-01  9.6273E-01  3.0732E+00  3.8517E-01  2.5316E-01  6.3421E-02  2.2844E-05  1.2355E-04  1.1787E-05  1.2470E-05  1.5481E-05  1.3260E-05  1.1251E-05
  2.95300000000E+00  0.00000000000E+00 -2.10000000000E+01 6.00195E-01 1.00000E+00 2.84785E-03  1.2872E-05  2.8238E+00  1.4899E+00  7.5362E-01  9.6268E-01  3.0729E+00  3.8514E-01  2.5315E-01  6.3417E-02  2.2842E-05  1.2355E-04  1.1787E-05  1.2469E-05  1.5480E-05  1.3259E-05  1.1250E-05
  2.95300000000E+00  0.00000000000E+00 -2.30000000000E+01 5.48982E-01 1.00000E+00 2.84746E-03  1.2870E-05  2.8235E+00  1.4897E+00  7.5340E-01  9.6257E-01  3.0723E+00  3.8509E-01  2.5313E-01  6.3409E-02  2.2839E-05  1.2353E-04  1.1785E-05  1.2467E-05  1.5478E-05  1.3257E-05  1.1249E-05
  2.95300000000E+00  0.00000000000E+00 -2.50000000000E+01 3.70388E-01 1.00000E+00 2.82770E-03  1.2781E-05  2.8038E+00  1.4793E+00  7.4789E-01  9.5591E-01  3.0506E+00  3.8241E-01  2.5138E-01  6.2968E-02  2.2680E-05  1.2267E-04  1.1703E-05  1.2381E-05  1.5370E-05  1.3165E-05  1.1171E-05
  2.95300000000E+00  0.00000000000E+00 -2.70000000000E+01 0.00000E+00 1.00000E+00 0.00000E+00  1.1158E-05  2.4479E+00  1.2915E+00  6.5218E-01  8.3466E-01  2.6623E+00  3.3387E-01  2.1952E-01  5.4974E-02  1.9801E-05  1.0710E-04  1.0217E-05  1.0809E-05  1.3419E-05  1.1494E-05  9.7525E-06
  2.95300000000E+00  0.00000000000E+00 -2.90000000000E+01 0.00000E+00 1.00000E+00 0.00000E+00  1.1156E-05  2.4474E+00  1.2912E+00  6.5149E-01  8.3459E-01  2.6610E+00  3.3382E-01  2.1952E-01  5.4964E-02  1.9797E-05  1.0708E-04  1.0216E-05  1.0807E-05  1.3416E-05  1.1492E-05  9.7507E-06
  2.95300000000E+00  0.00000000000E+00 -3.10000000000E+01 0.00000E+00 1.00000E+00 0.00000E+00  1.1154E-05  2.4470E+00  1.2909E+00  6.5114E-01  8.3449E-01  2.6603E+00  3.3376E-01  2.1950E-01  5.4955E-02  1.9794E-05  1.0706E-04  1.0214E-05  1.0805E-05  1.3414E-05  1.1490E-05  9.7491E-06
  2.95300000000E+00  0.00000000000E+00 -3.30000000000E+01 0.00000E+00 1.00000E+00 0.00000E+00  1.1151E-05  2.4464E+00  1.2906E+00  6.5087E-01  8.3428E-01  2.6595E+00  3.3368E-01  2.1945E-01  5.4941E-02  1.9789E-05  1.0703E-04  1.0211E-05  1.0802E-05  1.3411E-05  1.1487E-05  9.7466E-06
  2.95300000000E+00  0.00000000000E+00 -3.50000000000E+01 0.00000E+00 1.00000E+00 0.00000E+00  1.1442E-05  2.5101E+00  1.3242E+00  6.6782E-01  8.5601E-01  2.7287E+00  3.4237E-01  2.2516E-01  5.6372E-02  2.0304E-05  1.0982E-04  1.0477E-05  1.1084E-05  1.3760E-05  1.1786E-05  1.0000E-05
  2.95300000000E+00  0.00000000000E+00 -3.70000000000E+01 0.00000E+00 1.00000E+00 0.00000E+00  1.1372E-05  2.4947E+00  1.3161E+00  6.6371E-01  8.5075E-01  2.7120E+00  3.4026E-01  2.2378E-01  5.6025E-02  2.0180E-05  1.0915E-04  1.0413E-05  1.1016E-05  1.3675E-05  1.1714E-05  9.9390E-06
  2.95300000000E+00  0.00000000000E+00 -3.90000000000E+01 0.00000E+00 1.00000E+00 0.00000E+00  1.1403E-05  2.5015E+00  1.3197E+00  6.6553E-01  8.5308E-01  2.7194E+00  3.4119E-01  2.2439E-01  5.6179E-02  2.0235E-05  1.0944E-04  1.0441E-05  1.1046E-05  1.3713E-05  1.1746E-05  9.9662E-06
  4.58600000000E+00  0.00000000000E+00 -1.00000000000E+00 5.35596E-01 1.00000E+00 2.84904E-03  1.2877E-05  2.8250E+00  1.4905E+00  7.5384E-01  9.6310E-01  3.0739E+00  3.8531E-01  2.5327E-01  6.3444E-02  2.2852E-05  1.2360E-04  1.1792E-05  1.2474E-05  1.5486E-05  1.3265E-05  1.1255E-05
  4.58600000000E+00  0.00000000000E+00 -3.00000000000E+00 5.67423E-01 1.00000E+00 2.84901E-03  1.2877E-05  2.8250E+00  1.4905E+00  7.5396E-01  9.6308E-01  3.0740E+00  3.8530E-01  2.5326E-01  6.3443E-02  2.2851E-05  1.2360E-04  1.1791E-05  1.2474E-05  1.5486E-05  1.3265E-05  1.1255E-05
  4.58600000000E+00  0.00000000000E+00 -5.00000000000E+00 5.91987E-01 1.00000E+00 2.84894E-03  1.2877E-05  2.8249E+00  1.4905E+00  7.5402E-01  9.6304E-01  3.0741E+00  3.8529E-01  2.5325E-01  6.3442E-02  2.2851E-05  1.2359E-04  1.1791E-05  1.2474E-05  1.5486E-05  1.3264E-05  1.1255E-05
  4.58600000000E+00  0.00000000000E+00 -7.00000000000E+00 6.12533E-01 1.00000E+00 2.84884E-03  1.2876E-05  2.8248E+00  1.4904E+00  7.5405E-01  9.6300E-01  3.0741E+00  3.8528E-01  2.5323E-01  6.3439E-02  2.2850E-05  1.2359E-04  1.1791E-05  1.2473E-05  1.5485E-05  1.3264E-05  1.1254E-05
  4.58600000000E+00  0.00000000000E+00 -9.00000000000E+00 6.29297E-01 1.00000E+00 2.84873E-03  1.2876E-05  2.8247E+00  1.4904E+00  7.5405E-01  9.6296E-01  3.0740E+00  3.8526E-01  2.5322E-01  6.3437E-02  2.2849E-05  1.2359E-04  1.1790E-05  1.2473E-05  1.5484E-05  1.3263E-05  1.1254E-05
  4.58600000000E+00  0.00000000000E+00 -1.10000000000E+01 6.41321E-01 1.00000E+00 2.84861E-03  1.2875E-05  2.8246E+00  1.4903E+00  7.5402E-01  9.6291E-01  3.0739E+00  3.8524E-01  2.5321E-01  6.3434E-02  2.2848E-05  1.2358E-04  1.1790E-05  1.2472E-05  1.5484E-05  1.3263E-05  1.1253E-05
  4.58600000000E+00  0.00000000000E+00 -1.30000000000E+01 6.47476E-01 1.00000E+00 2.84852E-03  1.2875E-05  2.8245E+00  1.4903E+00  7.5399E-01  9.6289E-01  3.0738E+00  3.8523E-01  2.5320E-01  6.3432E-02  2.2848E-05  1.2358E-04  1.1789E-05  1.2472E-05  1.5483E-05  1.3262E-05  1.1253E-05
  4.58600000000E+00  0.00000000000E+00 -1.50000000000E+01 6.47167E-01 1.00000E+00 2.84835E-03  1.2874E-05  2.8243E+00  1.4902E+00  7.5392E-01  9.6283E-01  3.0736E+00  3.8521E-01  2.5319E-01  6.3428E-02  2.2846E-05  1.2357E-04  1.1789E-05  1.2471E-05  1.5482E-05  1.3262E-05  1.1252E-05
  4.58600000000E+00  0.00000000000E+00 -1.70000000000E+01 6.40273E-01 1.00000E+00 2.84817E-03  1.2873E-05  2.8242E+00  1.4901E+00  7.5383E-01  9.6278E-01  3.0734E+00  3.8519E-01  2.5317E-01  6.3425E-02  2.2845E-05  1.2356E-04  1.1788E-05  1.2471E-05  1.5481E-05  1.3261E-05  1.1252E-05
  4.58600000000E+00  0.00000000000E+00 -1.90000000000E+01 6.26290E-01 1.00000E+00 2.84806E-03  1.2873E-05  2.8240E+00  1.4900E+00  7.5375E-01  9.6275E-01  3.0732E+00  3.8517E-01  2.5317E-01  6.3422E-02  2.2844E-05  1.2356E-04  1.1787E-05  1.2470E-05  1.5481E-05  1.3260E-05  1.1251E-05
  4.58600000000E+00  0.00000000000E+00 -2.10000000000E+01 6.02585E-01 1.00000E+00 2.84789E-03  1.2872E-05  2.8239E+00  1.4899E+00  7.5363E-01  9.6270E-01  3.0729E+00  3.8515E-01  2.5316E-01  6.3418E-02  2.2842E-05  1.2355E-04  1.1787E-05  1.2469E-05  1.5480E-05  1.3259E-05  1.1251E-05
  4.58600000000E+00  0.00000000000E+00 -2.30000000000E+01 5.58732E-01 1.00000E+00 2.84763E-03  1.2871E-05  2.8236E+00  1.4898E+00  7.5346E-01  9.6262E-01  3.0725E+00  3.8511E-01  2.5314E-01  6.3413E-02  2.2840E-05  1.2354E-04  1.1786E-05  1.2468E-05  1.5478E-05  1.3258E-05  1.1249E-05
  4.58600000000E+00  0.00000000000E+00 -2.50000000000E+01 4.38275E-01 1.00000E+00 2.83832E-03  1.2829E-05  2.8144E+00  1.4849E+00  7.5079E-01  9.5950E-01  3.0622E+00  3.8386E-01  2.5232E-01  6.3205E-02  2.2766E-05  1.2313E-04  1.1747E-05  1.2427E-05  1.5428E-05  1.3215E-05  1.1213E-05
  4.58600000000E+00  0.00000000000E+00 -2.70000000000E+01 3.67319E-02 1.00000E+00 2.46887E-03  1.1159E-05  2.4480E+00  1.2915E+00  6.5240E-01  8.3466E-01  2.6627E+00  3.3388E-01  2.1951E-01  5.4976E-02  1.9802E-05  1.0710E-04  1.0218E-05  1.0809E-05  1.3419E-05  1.1494E-05  9.7529E-06
  4.58600000000E+00  0.00000000000E+00 -2.90000000000E+01 0.00000E+00 1.00000E+00 0.00000E+00  1.1157E-05  2.4476E+00  1.2913E+00  6.5169E-01  8.3462E-01  2.6614E+00  3.3384E-01  2.1952E-01  5.4968E-02  1.9799E-05  1.0709E-04  1.0216E-05  1.0808E-05  1.3417E-05  1.1493E-05  9.7514E-06
  4.58600000000E+00  0.00000000000E+00 -3.10000000000E+01 0.00000E+00 1.00000E+00 0.00000E+00  1.1608E-05  2.5466E+00  1.3435E+00  6.7774E-01  8.6843E-01  2.7686E+00  3.4734E-01  2.2842E-01  5.7191E-02  2.0600E-05  1.1142E-04  1.0629E-05  1.1245E-05  1.3960E-05  1.1957E-05  1.0146E-05
  4.58600000000E+00  0.00000000000E+00 -3.30000000000E+01 0.00000E+00 1.00000E+00 0.00000E+00  1.1153E-05  2.4468E+00  1.2908E+00  6.5104E-01  8.3442E-01  2.6600E+00  3.3374E-01  2.1948E-01  5.4951E-02  1.9793E-05  1.0705E-04  1.0213E-05  1.0804E-05  1.3413E-05  1.1489E-05  9.7483E-06
  4.58600000000E+00  0.00000000000E+00 -3.50000000000E+01 0.00000E+00 1.00000E+00 0.00000E+00  1.1152E-05  2.4465E+00  1.2907E+00  6.5095E-01  8.3433E-01  2.6597E+00  3.3370E-01  2.1946E-01  5.4944E-02  1.9790E-05  1.0704E-04  1.0212E-05  1.0803E-05  1.3411E-05  1.1488E-05  9.7472E-06
  4.58600000000E+00  0.00000000000E+00 -3.70000000000E+01 0.00000E+00 1.00000E+00 0.00000E+00  1.1151E-05  2.4464E+00  1.2906E+00  6.5091E-01  8.3427E-01  2.6595E+00  3.3367E-01  2.1944E-01  5.4941E-02  1.9789E-05  1.0703E-04  1.0211E-05  1.0802E-05  1.3411E-05  1.1487E-05  9.7465E-06
  4.58600000000E+00  0.00000000000E+00 -3.90000000000E+01 0.00000E+00 1.00000E+00 0.00000E+00  1.1241E-05  2.4661E+00  1.3010E+00  6.5615E-01  8.4099E-01  2.6809E+00  3.3636E-01  2.2121E-01  5.5383E-02  1.9948E-05  1.0789E-04  1.0293E-05  1.0889E-05  1.3518E-05  1.1579E-05  9.8250E-06
  6.57100000000E+00  0.00000000000E+00 -1.00000000000E+00 5.35592E-01 1.00000E+00 2.84905E-03  1.2877E-05  2.8250E+00  1.4905E+00  7.5384E-01  9.6311E-01  3.0739E+00  3.8531E-01  2.5327E-01  6.3444E-02  2.2852E-05  1.2360E-04  1.1792E-05  1.2474E-05  1.5486E-05  1.3265E-05  1.1255E-05
  6.57100000000E+00  0.00000000000E+00 -3.00000000000E+00 5.67408E-01 1.00000E+00 2.84902E-03  1.2877E-05  2.8250E+00  1.4905E+00  7.5396E-01  9.6308E-01  3.0740E+00  3.8530E-01  2.5326E-01  6.3443E-02  2.2852E-05  1.2360E-04  1.1791E-05  1.2474E-05  1.5486E-05  1.3265E-05  1.1255E-05
  6.57100000000E+00  0.00000000000E+00 -5.00000000000E+00 5.91961E-01 1.00000E+00 2.84895E-03  1.2877E-05  2.8249E+00  1.4905E+00  7.5402E-01  9.6304E-01  3.0741E+00  3.8529E-01  2.5325E-01  6.3442E-02  2.2851E-05  1.2359E-04  1.1791E-05  1.2474E-05  1.5486E-05  1.3264E-05  1.1255E-05
  6.57100000000E+00  0.00000000000E+00 -7.00000000000E+00 6.12502E-01 1.00000E+00 2.84886E-03  1.2877E-05  2.8248E+00  1.4904E+00  7.5405E-01  9.6301E-01  3.0741E+00  3.8528E-01  2.5324E-01  6.3440E-02  2.2850E-05  1.2359E-04  1.1791E-05  1.2474E-05  1.5485E-05  1.3264E-05  1.1254E-05
  6.57100000000E+00  0.00000000000E+00 -9.00000000000E+00 6.29282E-01 1.00000E+00 2.84874E-03  1.2876E-05  2.8247E+00  1.4904E+00  7.5405E-01  9.6296E-01  3.0740E+00  3.8526E-01  2.5322E-01  6.3437E-02  2.2849E-05  1.2359E-04  1.1790E-05  1.2473E-05  1.5485E-05  1.3263E-05  1.1254E-05
  6.57100000000E+00  0.00000000000E+00 -1.10000000000E+01 6.41360E-01 1.00000E+00 2.84863E-03  1.2875E-05  2.8246E+00  1.4903E+00  7.5403E-01  9.6292E-01  3.0739E+00  3.8525E-01  2.5321E-01  6.3435E-02  2.2848E-05  1.2358E-04  1.1790E-05  1.2472E-05  1.5484E-05  1.3263E-05  1.1253E-05
  6.57100000000E+00  0.00000000000E+00 -1.30000000000E+01 6.47623E-01 1.00000E+00 2.84854E-03  1.2875E-05  2.8245E+00  1.4903E+00  7.5400E-01  9.6289E-01  3.0738E+00  3.8524E-01  2.5320E-01  6.3433E-02  2.2848E-05  1.2358E-04  1.1789E-05  1.2472E-05  1.5483E-05  1.3262E-05  1.1253E-05
  6.57100000000E+00  0.00000000000E+00 -1.50000000000E+01 6.47506E-01 1.00000E+00 2.84839E-03  1.2874E-05  2.8244E+00  1.4902E+00  7.5393E-01  9.6284E-01  3.0737E+00  3.8522E-01  2.5319E-01  6.3429E-02  2.2846E-05  1.2357E-04  1.1789E-05  1.2471E-05  1.5483E-05  1.3262E-05  1.1252E-05
  6.57100000000E+00  0.00000000000E+00 -1.70000000000E+01 6.40959E-01 1.00000E+00 2.84821E-03  1.2874E-05  2.8242E+00  1.4901E+00  7.5384E-01  9.6279E-01  3.0734E+00  3.8519E-01  2.5318E-01  6.3425E-02  2.2845E-05  1.2356E-04  1.1788E-05  1.2471E-05  1.5482E-05  1.3261E-05  1.1252E-05
  6.57100000000E+00  0.00000000000E+00 -1.90000000000E+01 6.27717E-01 1.00000E+00 2.84811E-03  1.2873E-05  2.8241E+00  1.4900E+00  7.5377E-01  9.6276E-01  3.0733E+00  3.8518E-01  2.5317E-01  6.3423E-02  2.2844E-05  1.2356E-04  1.1788E-05  1.2470E-05  1.5481E-05  1.3260E-05  1.1251E-05
  6.57100000000E+00  0.00000000000E+00 -2.10000000000E+01 6.06023E-01 1.00000E+00 2.84795E-03  1.2872E-05  2.8239E+00  1.4900E+00  7.5366E-01  9.6272E-01  3.0730E+00  3.8516E-01  2.5316E-01  6.3420E-02  2.2843E-05  1.2355E-04  1.1787E-05  1.2470E-05  1.5480E-05  1.3260E-05  1.1251E-05
  6.57100000000E+00  0.00000000000E+00 -2.30000000000E+01 5.69407E-01 1.00000E+00 2.84777E-03  1.2872E-05  2.8238E+00  1.4899E+00  7.5351E-01  9.6267E-01  3.0727E+00  3.8513E-01  2.5315E-01  6.3416E-02  2.2842E-05  1.2354E-04  1.1786E-05  1.2469E-05  1.5479E-05  1.3259E-05  1.1250E-05
  6.57100000000E+00  0.00000000000E+00 -2.50000000000E+01 4.88770E-01 1.00000E+00 2.84466E-03  1.2858E-05  2.8207E+00  1.4882E+00  7.5254E-01  9.6164E-01  3.0691E+00  3.8471E-01  2.5288E-01  6.3346E-02  2.2817E-05  1.2341E-04  1.1773E-05  1.2455E-05  1.5462E-05  1.3244E-05  1.1238E-05
  6.57100000000E+00  0.00000000000E+00 -2.70000000000E+01 1.71100E-01 1.00000E+00 2.58755E-03  1.1695E-05  2.5657E+00  1.3536E+00  6.8405E-01  8.7475E-01  2.7912E+00  3.4994E-01  2.3005E-01  5.7620E-02  2.0754E-05  1.1225E-04  1.0709E-05  1.1329E-05  1.4064E-05  1.2047E-05  1.0222E-05
  6.57100000000E+00  0.00000000000E+00 -2.90000000000E+01 0.00000E+00 1.00000E+00 0.00000E+00  1.1158E-05  2.4478E+00  1.2914E+00  6.5199E-01  8.3468E-01  2.6620E+00  3.3387E-01  2.1953E-01  5.4973E-02  1.9801E-05  1.0710E-04  1.0217E-05  1.0809E-05  1.3419E-05  1.1494E-05  9.7524E-06
  6.57100000000E+00  0.00000000000E+00 -3.10000000000E+01 0.00000E+00 1.00000E+00 0.00000E+00  1.1156E-05  2.4474E+00  1.2912E+00  6.5151E-01  8.3460E-01  2.6610E+00  3.3382E-01  2.1952E-01  5.4965E-02  1.9798E-05  1.0708E-04  1.0216E-05  1.0807E-05  1.3416E-05  1.1492E-05  9.7508E-06
  6.57100000000E+00  0.00000000000E+00 -3.30000000000E+01 0.00000E+00 1.00000E+00 0.00000E+00  1.1205E-05  2.4581E+00  1.2968E+00  6.5414E-01  8.3826E-01  2.6724E+00  3.3528E-01  2.2049E-01  5.5204E-02  1.9884E-05  1.0755E-04  1.0260E-05  1.0854E-05  1.3475E-05  1.1542E-05  9.7933E-06
  6.57100000000E+00  0.00000000000E+00 -3.50000000000E+01 0.00000E+00 1.00000E+00 0.00000E+00  1.1153E-05  2.4468E+00  1.2908E+00  6.5109E-01  8.3440E-01  2.6600E+00  3.3373E-01  2.1947E-01  5.4949E-02  1.9792E-05  1.0705E-04  1.0213E-05  1.0804E-05  1.3413E-05  1.1489E-05  9.7481E-06
  6.57100000000E+00  0.00000000000E+00 -3.70000000000E+01 0.00000E+00 1.00000E+00 0.00000E+00  1.1153E-05  2.4466E+00  1.2907E+00  6.5106E-01  8.3435E-01  2.6598E+00  3.3371E-01  2.1946E-01  5.4947E-02  1.9791E-05  1.0704E-04  1.0212E-05  1.0804E-05  1.3412E-05  1.1488E-05  9.7476E-06
  6.57100000000E+00  0.00000000000E+00 -3.90000000000E+01 0.00000E+00 1.00000E+00 0.00000E+00  1.1152E-05  2.4466E+00  1.2907E+00  6.5105E-01  8.3433E-01  2.6598E+00  3.3370E-01  2.1946E-01  5.4945E-02  1.9791E-05  1.0704E-04  1.0212E-05  1.0803E-05  1.3412E-05  1.1488E-05  9.7474E-06
  8.98200000000E+00  0.00000000000E+00 -1.00000000000E+00 5.35585E-01 1.00000E+00 2.84907E-03  1.2878E-05  2.8250E+00  1.4905E+00  7.5385E-01  9.6312E-01  3.0739E+00  3.8531E-01  2.5328E-01  6.3445E-02  2.2852E-05  1.2360E-04  1.1792E-05  1.2474E-05  1.5486E-05  1.3265E-05  1.1255E-05
  8.98200000000E+00  0.00000000000E+00 -3.00000000000E+00 5.67384E-01 1.00000E+00 2.84903E-03  1.2877E-05  2.8250E+00  1.4905E+00  7.5396E-01  9.6308E-01  3.0740E+00  3.8530E-01  2.5326E-01  6.3444E-02  2.2852E-05  1.2360E-04  1.1792E-05  1.2474E-05  1.5486E-05  1.3265E-05  1.1255E-05
  8.98200000000E+00  0.00000000000E+00 -5.00000000000E+00 5.91918E-01 1.00000E+00 2.84897E-03  1.2877E-05  2.8249E+00  1.4905E+00  7.5403E-01  9.6305E-01  3.0741E+00  3.8530E-01  2.5325E-01  6.3442E-02  2.2851E-05  1.2360E-04  1.1791E-05  1.2474E-05  1.5486E-05  1.3264E-05  1.1255E-05