Title="TOUGHREACT V4.13omp : Mineral Reaction Rate (mol/kg H2O/s)"
Variables= "X(m)"   "Y(m)"   "Z(m)"       "T(C)"
Zone T= "1.00000000E+03 sec" I=    6794 J=       1 K=       1 F=Point
  0.00000000000E+00  0.00000000000E+00  0.00000000000E+00     75.000
  3.19176920000E+05  5.10094703000E+06  4.39190000000E+02     16.159
  3.19476920000E+05  5.10094703000E+06  4.38290000000E+02     16.186
  3.19576920000E+05  5.10094703000E+06  4.46560000000E+02     15.938
  3.19676920000E+05  5.10094703000E+06  4.59840000000E+02     15.539
  3.19776920000E+05  5.10094703000E+06  4.70810000000E+02     15.210
  3.19876920000E+05  5.10094703000E+06  4.75190000000E+02     15.079
  3.19976920000E+05  5.10094703000E+06  4.75930000000E+02     15.056
  3.20076920000E+05  5.10094703000E+06  4.73770000000E+02     15.121
  3.20176920000E+05  5.10094703000E+06  4.71320000000E+02     15.195
  3.20276920000E+05  5.10094703000E+06  4.63060000000E+02     15.443
  3.20376920000E+05  5.10094703000E+06  4.55410000000E+02     15.672
  3.20476920000E+05  5.10094703000E+06  4.48440000000E+02     15.881
  3.18876920000E+05  5.10084703000E+06  4.43090000000E+02     16.042
  3.18976920000E+05  5.10084703000E+06  4.49760000000E+02     15.841
  3.19076920000E+05  5.10084703000E+06  4.54770000000E+02     15.691
  3.19176920000E+05  5.10084703000E+06  4.50150000000E+02     15.830
  3.19276920000E+05  5.10084703000E+06  4.44650000000E+02     15.995
  3.19376920000E+05  5.10084703000E+06  4.48080000000E+02     15.892
  3.19476920000E+05  5.10084703000E+06  4.45890000000E+02     15.958
  3.19576920000E+05  5.10084703000E+06  4.48310000000E+02     15.885
  3.19676920000E+05  5.10084703000E+06  4.60970000000E+02     15.505
  3.19776920000E+05  5.10084703000E+06  4.65650000000E+02     15.365
  3.19876920000E+05  5.10084703000E+06  4.69810000000E+02     15.240
  3.19976920000E+05  5.10084703000E+06  4.71130000000E+02     15.200
  3.20076920000E+05  5.10084703000E+06  4.67820000000E+02     15.300
  3.20176920000E+05  5.10084703000E+06  4.64380000000E+02     15.403
  3.20276920000E+05  5.10084703000E+06  4.58600000000E+02     15.576
  3.20376920000E+05  5.10084703000E+06  4.47250000000E+02     15.917
  3.20476920000E+05  5.10084703000E+06  4.38570000000E+02     16.177
  3.19476920000E+05  5.10114703000E+06  4.54810000000E+02     15.690
  3.19576920000E+05  5.10114703000E+06  4.45750000000E+02     15.962
  3.19676920000E+05  5.10114703000E+06  4.55380000000E+02     15.673
  3.19776920000E+05  5.10114703000E+06  4.60980000000E+02     15.505
  3.19876920000E+05  5.10114703000E+06  4.61810000000E+02     15.480
  3.19976920000E+05  5.10114703000E+06  4.76190000000E+02     15.049
  3.20076920000E+05  5.10114703000E+06  4.73270000000E+02     15.136
  3.20176920000E+05  5.10114703000E+06  4.65160000000E+02     15.380
  3.20276920000E+05  5.10114703000E+06  4.61060000000E+02     15.502
  3.20376920000E+05  5.10114703000E+06  4.62660000000E+02     15.454
  3.20476920000E+05  5.10114703000E+06  4.50740000000E+02     15.812
  3.19576920000E+05  5.10104703000E+06  4.46760000000E+02     15.931
  3.19676920000E+05  5.10104703000E+06  4.61370000000E+02     15.493
  3.19776920000E+05  5.10104703000E+06  4.68220000000E+02     15.288
  3.19876920000E+05  5.10104703000E+06  4.73870000000E+02     15.118
  3.19976920000E+05  5.10104703000E+06  4.77810000000E+02     15.000
  3.20076920000E+05  5.10104703000E+06  4.75430000000E+02     15.071
  3.20176920000E+05  5.10104703000E+06  4.70550000000E+02     15.218
  3.20276920000E+05  5.10104703000E+06  4.64680000000E+02     15.394
  3.20376920000E+05  5.10104703000E+06  4.60210000000E+02     15.528
  3.20476920000E+05  5.10104703000E+06  4.53700000000E+02     15.723
  3.19576920000E+05  5.10134703000E+06  4.39200000000E+02     16.158
  3.19676920000E+05  5.10134703000E+06  4.45220000000E+02     15.978
  3.19776920000E+05  5.10134703000E+06  4.52450000000E+02     15.761
  3.19876920000E+05  5.10134703000E+06  4.51610000000E+02     15.786
  3.19976920000E+05  5.10134703000E+06  4.51350000000E+02     15.794
  3.20076920000E+05  5.10134703000E+06  4.55210000000E+02     15.678
  3.20176920000E+05  5.10134703000E+06  4.54660000000E+02     15.694
  3.20276920000E+05  5.10134703000E+06  4.49710000000E+02     15.843
  3.20376920000E+05  5.10134703000E+06  4.38650000000E+02     16.175
  3.19476920000E+05  5.10124703000E+06  4.40940000000E+02     16.106
  3.19576920000E+05  5.10124703000E+06  4.45900000000E+02     15.957
  3.19676920000E+05  5.10124703000E+06  4.50710000000E+02     15.813
  3.19776920000E+05  5.10124703000E+06  4.54390000000E+02     15.703
  3.19876920000E+05  5.10124703000E+06  4.48640000000E+02     15.875
  3.19976920000E+05  5.10124703000E+06  4.61770000000E+02     15.481
  3.20076920000E+05  5.10124703000E+06  4.61510000000E+02     15.489
  3.20176920000E+05  5.10124703000E+06  4.56970000000E+02     15.625
  3.20276920000E+05  5.10124703000E+06  4.56220000000E+02     15.648
  3.20376920000E+05  5.10124703000E+06  4.57870000000E+02     15.598
  3.19776920000E+05  5.10154703000E+06  4.46590000000E+02     15.937
  3.19876920000E+05  5.10154703000E+06  4.48840000000E+02     15.869
  3.19976920000E+05  5.10154703000E+06  4.46150000000E+02     15.950
  3.20076920000E+05  5.10154703000E+06  4.45730000000E+02     15.962
  3.20176920000E+05  5.10154703000E+06  4.41520000000E+02     16.089
  3.19776920000E+05  5.10164703000E+06  4.39560000000E+02     16.148
  3.19676920000E+05  5.10144703000E+06  4.45210000000E+02     15.978
  3.19776920000E+05  5.10144703000E+06  4.45990000000E+02     15.955
  3.19876920000E+05  5.10144703000E+06  4.48860000000E+02     15.868
  3.19976920000E+05  5.10144703000E+06  4.48990000000E+02     15.865
  3.20076920000E+05  5.10144703000E+06  4.51550000000E+02     15.788
  3.20176920000E+05  5.10144703000E+06  4.47940000000E+02     15.896
  3.19876920000E+05  5.10164703000E+06  4.46440000000E+02     15.941
  3.19976920000E+05  5.10164703000E+06  4.47500000000E+02     15.909
  3.20076920000E+05  5.10164703000E+06  4.41230000000E+02     16.097
  3.20076920000E+05  5.10244703000E+06  4.41490000000E+02     16.090
  3.20176920000E+05  5.10244703000E+06  4.40510000000E+02     16.119
  3.20376920000E+05  5.10244703000E+06  4.38520000000E+02     16.179
  3.20476920000E+05  5.10244703000E+06  4.43540000000E+02     16.028
  3.19676920000E+05  5.10264703000E+06  4.44560000000E+02     15.998
  3.20176920000E+05  5.10264703000E+06  4.41160000000E+02     16.099
  3.20276920000E+05  5.10264703000E+06  4.41550000000E+02     16.088
  3.20376920000E+05  5.10264703000E+06  4.44350000000E+02     16.004
  3.20476920000E+05  5.10264703000E+06  4.46540000000E+02     15.938
  3.20076920000E+05  5.10254703000E+06  4.39780000000E+02     16.141
  3.20176920000E+05  5.10254703000E+06  4.41960000000E+02     16.076
  3.20276920000E+05  5.10254703000E+06  4.40400000000E+02     16.122
  3.20376920000E+05  5.10254703000E+06  4.42280000000E+02     16.066
  3.20476920000E+05  5.10254703000E+06  4.44500000000E+02     15.999
  3.20376920000E+05  5.10284703000E+06  4.47610000000E+02     15.906
  3.20476920000E+05  5.10284703000E+06  4.48160000000E+02     15.889
  3.19576920000E+05  5.10274703000E+06  4.40720000000E+02     16.113
  3.20276920000E+05  5.10274703000E+06  4.41140000000E+02     16.100
  3.20376920000E+05  5.10274703000E+06  4.47520000000E+02     15.909
  3.20476920000E+05  5.10274703000E+06  4.47600000000E+02     15.906
  3.20376920000E+05  5.10294703000E+06  4.46110000000E+02     15.951
  3.20476920000E+05  5.10294703000E+06  4.48860000000E+02     15.868
  3.18676920000E+05  5.10094703000E+06  3.52010000000E+02     18.774
  3.18776920000E+05  5.10094703000E+06  3.71720000000E+02     18.183
  3.18876920000E+05  5.10094703000E+06  3.71530000000E+02     18.188
  3.18976920000E+05  5.10094703000E+06  3.75580000000E+02     18.067
  3.19076920000E+05  5.10094703000E+06  3.84600000000E+02     17.796
  3.19176920000E+05  5.10094703000E+06  3.87000000000E+02     17.724
  3.19276920000E+05  5.10094703000E+06  3.85050000000E+02     17.783
  3.19376920000E+05  5.10094703000E+06  3.83660000000E+02     17.825
  3.19476920000E+05  5.10094703000E+06  3.87000000000E+02     17.724
  3.19576920000E+05  5.10094703000E+06  3.87000000000E+02     17.724
  3.19676920000E+05  5.10094703000E+06  3.87000000000E+02     17.724
  3.19776920000E+05  5.10094703000E+06  3.87000000000E+02     17.724
  3.19876920000E+05  5.10094703000E+06  3.87000000000E+02     17.724
  3.19976920000E+05  5.10094703000E+06  3.87000000000E+02     17.724
  3.20076920000E+05  5.10094703000E+06  3.87000000000E+02     17.724
  3.20176920000E+05  5.10094703000E+06  3.87000000000E+02     17.724
  3.20276920000E+05  5.10094703000E+06  3.87000000000E+02     17.724
  3.20376920000E+05  5.10094703000E+06  3.87000000000E+02     17.724
  3.20476920000E+05  5.10094703000E+06  3.87000000000E+02     17.724
  3.18576920000E+05  5.10084703000E+06  3.45140000000E+02     18.980
  3.18676920000E+05  5.10084703000E+06  3.67510000000E+02     18.309
  3.18776920000E+05  5.10084703000E+06  3.84940000000E+02     17.786
  3.18876920000E+05  5.10084703000E+06  3.87000000000E+02     17.724
  3.18976920000E+05  5.10084703000E+06  3.87000000000E+02     17.724
  3.19076920000E+05  5.10084703000E+06  3.87000000000E+02     17.724
  3.19176920000E+05  5.10084703000E+06  3.87000000000E+02     17.724
  3.19276920000E+05  5.10084703000E+06  3.87000000000E+02     17.724
  3.19376920000E+05  5.10084703000E+06  3.87000000000E+02     17.724
  3.19476920000E+05  5.10084703000E+06  3.87000000000E+02     17.724
  3.19576920000E+05  5.10084703000E+06  3.87000000000E+02     17.724
  3.19676920000E+05  5.10084703000E+06  3.87000000000E+02     17.724
  3.19776920000E+05  5.10084703000E+06  3.87000000000E+02     17.724
  3.19876920000E+05  5.10084703000E+06  3.87000000000E+02     17.724
  3.19976920000E+05  5.10084703000E+06  3.87000000000E+02     17.724
  3.20076920000E+05  5.10084703000E+06  3.87000000000E+02     17.724
  3.20176920000E+05  5.10084703000E+06  3.87000000000E+02     17.724
  3.20276920000E+05  5.10084703000E+06  3.87000000000E+02     17.724
  3.20376920000E+05  5.10084703000E+06  3.87000000000E+02     17.724
  3.20476920000E+05  5.10084703000E+06  3.87000000000E+02     17.724
  3.19076920000E+05  5.10114703000E+06  3.52980000000E+02     18.745
  3.19176920000E+05  5.10114703000E+06  3.64600000000E+02     18.396
  3.19276920000E+05  5.10114703000E+06  3.66940000000E+02     18.326
  3.19376920000E+05  5.10114703000E+06  3.75440000000E+02     18.071
  3.19476920000E+05  5.10114703000E+06  3.87000000000E+02     17.724
  3.19576920000E+05  5.10114703000E+06  3.87000000000E+02     17.724
  3.19676920000E+05  5.10114703000E+06  3.87000000000E+02     17.724
  3.19776920000E+05  5.10114703000E+06  3.87000000000E+02     17.724
  3.19876920000E+05  5.10114703000E+06  3.87000000000E+02     17.724
  3.19976920000E+05  5.10114703000E+06  3.87000000000E+02     17.724
  3.20076920000E+05  5.10114703000E+06  3.87000000000E+02     17.724
  3.20176920000E+05  5.10114703000E+06  3.87000000000E+02     17.724
  3.20276920000E+05  5.10114703000E+06  3.87000000000E+02     17.724
  3.20376920000E+05  5.10114703000E+06  3.87000000000E+02     17.724
  3.20476920000E+05  5.10114703000E+06  3.87000000000E+02     17.724
  3.18676920000E+05  5.10104703000E+06  3.42570000000E+02     19.057
  3.18776920000E+05  5.10104703000E+06  3.58820000000E+02     18.570
  3.18876920000E+05  5.10104703000E+06  3.61100000000E+02     18.501
  3.18976920000E+05  5.10104703000E+06  3.63970000000E+02     18.415
  3.19076920000E+05  5.10104703000E+06  3.63810000000E+02     18.420
  3.19176920000E+05  5.10104703000E+06  3.71100000000E+02     18.201
  3.19276920000E+05  5.10104703000E+06  3.76320000000E+02     18.045
  3.19376920000E+05  5.10104703000E+06  3.79290000000E+02     17.956
  3.19476920000E+05  5.10104703000E+06  3.86250000000E+02     17.747
  3.19576920000E+05  5.10104703000E+06  3.87000000000E+02     17.724
  3.19676920000E+05  5.10104703000E+06  3.87000000000E+02     17.724
  3.19776920000E+05  5.10104703000E+06  3.87000000000E+02     17.724
  3.19876920000E+05  5.10104703000E+06  3.87000000000E+02     17.724
  3.19976920000E+05  5.10104703000E+06  3.87000000000E+02     17.724
  3.20076920000E+05  5.10104703000E+06  3.87000000000E+02     17.724
  3.20176920000E+05  5.10104703000E+06  3.87000000000E+02     17.724
  3.20276920000E+05  5.10104703000E+06  3.87000000000E+02     17.724
  3.20376920000E+05  5.10104703000E+06  3.87000000000E+02     17.724
  3.20476920000E+05  5.10104703000E+06  3.87000000000E+02     17.724
  3.19276920000E+05  5.10134703000E+06  3.61570000000E+02     18.487
  3.19376920000E+05  5.10134703000E+06  3.68420000000E+02     18.282
  3.19476920000E+05  5.10134703000E+06  3.81250000000E+02     17.897
  3.19576920000E+05  5.10134703000E+06  3.87000000000E+02     17.724
  3.19676920000E+05  5.10134703000E+06  3.87000000000E+02     17.724
  3.19776920000E+05  5.10134703000E+06  3.87000000000E+02     17.724
  3.19876920000E+05  5.10134703000E+06  3.87000000000E+02     17.724
  3.19976920000E+05  5.10134703000E+06  3.87000000000E+02     17.724
  3.20076920000E+05  5.10134703000E+06  3.87000000000E+02     17.724
  3.20176920000E+05  5.10134703000E+06  3.87000000000E+02     17.724
  3.20276920000E+05  5.10134703000E+06  3.87000000000E+02     17.724
  3.20376920000E+05  5.10134703000E+06  3.87000000000E+02     17.724
  3.20476920000E+05  5.10134703000E+06  3.79960000000E+02     17.936
  3.19276920000E+05  5.10144703000E+06  3.47120000000E+02     18.921
  3.19376920000E+05  5.10144703000E+06  3.62540000000E+02     18.458
  3.19176920000E+05  5.10124703000E+06  3.59440000000E+02     18.551
  3.19276920000E+05  5.10124703000E+06  3.64460000000E+02     18.401
  3.19376920000E+05  5.10124703000E+06  3.73770000000E+02     18.121
  3.19476920000E+05  5.10124703000E+06  3.87000000000E+02     17.724
  3.19576920000E+05  5.10124703000E+06  3.87000000000E+02     17.724
  3.19676920000E+05  5.10124703000E+06  3.87000000000E+02     17.724
  3.19776920000E+05  5.10124703000E+06  3.87000000000E+02     17.724
  3.19876920000E+05  5.10124703000E+06  3.87000000000E+02     17.724
  3.19976920000E+05  5.10124703000E+06  3.87000000000E+02     17.724
  3.20076920000E+05  5.10124703000E+06  3.87000000000E+02     17.724
  3.20176920000E+05  5.10124703000E+06  3.87000000000E+02     17.724
  3.20276920000E+05  5.10124703000E+06  3.87000000000E+02     17.724
  3.20376920000E+05  5.10124703000E+06  3.87000000000E+02     17.724
  3.20476920000E+05  5.10124703000E+06  3.86620000000E+02     17.736
  3.19676920000E+05  5.10154703000E+06  3.84990000000E+02     17.785
  3.19776920000E+05  5.10154703000E+06  3.87000000000E+02     17.724
  3.19876920000E+05  5.10154703000E+06  3.87000000000E+02     17.724
  3.19976920000E+05  5.10154703000E+06  3.87000000000E+02     17.724
  3.20076920000E+05  5.10154703000E+06  3.87000000000E+02     17.724
  3.20176920000E+05  5.10154703000E+06  3.87000000000E+02     17.724
  3.20276920000E+05  5.10154703000E+06  3.82060000000E+02     17.872
  3.20376920000E+05  5.10154703000E+06  3.75940000000E+02     18.056
  3.20476920000E+05  5.10154703000E+06  3.76000000000E+02     18.054
  3.19376920000E+05  5.10164703000E+06  3.53020000000E+02     18.744
  3.19476920000E+05  5.10164703000E+06  3.65860000000E+02     18.358
  3.19576920000E+05  5.10164703000E+06  3.72890000000E+02     18.148
  3.19676920000E+05  5.10164703000E+06  3.80200000000E+02     17.928
  3.19776920000E+05  5.10164703000E+06  3.87000000000E+02     17.724
  3.19476920000E+05  5.10144703000E+06  3.72640000000E+02     18.155
  3.19576920000E+05  5.10144703000E+06  3.82210000000E+02     17.868
  3.19676920000E+05  5.10144703000E+06  3.87000000000E+02     17.724
  3.19776920000E+05  5.10144703000E+06  3.87000000000E+02     17.724
  3.19876920000E+05  5.10144703000E+06  3.87000000000E+02     17.724
  3.19976920000E+05  5.10144703000E+06  3.87000000000E+02     17.724
  3.20076920000E+05  5.10144703000E+06  3.87000000000E+02     17.724
  3.20176920000E+05  5.10144703000E+06  3.87000000000E+02     17.724
  3.20276920000E+05  5.10144703000E+06  3.86750000000E+02     17.732
  3.20376920000E+05  5.10144703000E+06  3.80870000000E+02     17.908
  3.20476920000E+05  5.10144703000E+06  3.73980000000E+02     18.115
  3.19376920000E+05  5.10154703000E+06  3.59310000000E+02     18.555
  3.19476920000E+05  5.10154703000E+06  3.69760000000E+02     18.241
  3.19576920000E+05  5.10154703000E+06  3.77870000000E+02     17.998
  3.20076920000E+05  5.10174703000E+06  3.71440000000E+02     18.191
  3.20176920000E+05  5.10174703000E+06  3.59360000000E+02     18.553
  3.20276920000E+05  5.10174703000E+06  3.82380000000E+02     17.863
  3.20376920000E+05  5.10174703000E+06  3.78890000000E+02     17.968
  3.20476920000E+05  5.10174703000E+06  3.69780000000E+02     18.241
  3.18776920000E+05  5.10184703000E+06  3.39290000000E+02     19.156
  3.18876920000E+05  5.10184703000E+06  3.38160000000E+02     19.189
  3.18976920000E+05  5.10184703000E+06  3.41420000000E+02     19.092
  3.19076920000E+05  5.10184703000E+06  3.42030000000E+02     19.073
  3.19176920000E+05  5.10184703000E+06  3.41080000000E+02     19.102
  3.19276920000E+05  5.10184703000E+06  3.48000000000E+02     18.894
  3.19376920000E+05  5.10184703000E+06  3.55080000000E+02     18.682
  3.19476920000E+05  5.10184703000E+06  3.63250000000E+02     18.437
  3.19576920000E+05  5.10184703000E+06  3.66590000000E+02     18.337
  3.19676920000E+05  5.10184703000E+06  3.67600000000E+02     18.306
  3.19776920000E+05  5.10184703000E+06  3.70390000000E+02     18.223
  3.19876920000E+05  5.10184703000E+06  3.73360000000E+02     18.134
  3.19976920000E+05  5.10184703000E+06  3.64020000000E+02     18.414
  3.20076920000E+05  5.10184703000E+06  3.52810000000E+02     18.750
  3.20176920000E+05  5.10184703000E+06  3.54520000000E+02     18.699
  3.19876920000E+05  5.10164703000E+06  3.87000000000E+02     17.724
  3.19976920000E+05  5.10164703000E+06  3.87000000000E+02     17.724
  3.20076920000E+05  5.10164703000E+06  3.87000000000E+02     17.724
  3.20176920000E+05  5.10164703000E+06  3.81730000000E+02     17.882
  3.20276920000E+05  5.10164703000E+06  3.79380000000E+02     17.953
  3.20376920000E+05  5.10164703000E+06  3.76330000000E+02     18.044
  3.20476920000E+05  5.10164703000E+06  3.75880000000E+02     18.058
  3.18576920000E+05  5.10174703000E+06  3.42580000000E+02     19.057
  3.18676920000E+05  5.10174703000E+06  3.44520000000E+02     18.999
  3.18876920000E+05  5.10174703000E+06  3.41810000000E+02     19.080
  3.19376920000E+05  5.10174703000E+06  3.52660000000E+02     18.755
  3.19476920000E+05  5.10174703000E+06  3.62500000000E+02     18.459
  3.19576920000E+05  5.10174703000E+06  3.67870000000E+02     18.298
  3.19676920000E+05  5.10174703000E+06  3.68170000000E+02     18.289
  3.19776920000E+05  5.10174703000E+06  3.76410000000E+02     18.042
  3.19876920000E+05  5.10174703000E+06  3.76930000000E+02     18.026
  3.19976920000E+05  5.10174703000E+06  3.86460000000E+02     17.741
  3.20476920000E+05  5.10194703000E+06  3.67040000000E+02     18.323
  3.19076920000E+05  5.10204703000E+06  3.39690000000E+02     19.144
  3.19376920000E+05  5.10204703000E+06  3.50700000000E+02     18.813
  3.19476920000E+05  5.10204703000E+06  3.59660000000E+02     18.544
  3.19576920000E+05  5.10204703000E+06  3.62370000000E+02     18.463
  3.19676920000E+05  5.10204703000E+06  3.63500000000E+02     18.429
  3.19776920000E+05  5.10204703000E+06  3.67930000000E+02     18.296
  3.19876920000E+05  5.10204703000E+06  3.61110000000E+02     18.501
  3.19976920000E+05  5.10204703000E+06  3.52800000000E+02     18.750
  3.20076920000E+05  5.10204703000E+06  3.52790000000E+02     18.751
  3.20176920000E+05  5.10204703000E+06  3.52770000000E+02     18.751
  3.20276920000E+05  5.10204703000E+06  3.52760000000E+02     18.752
  3.20376920000E+05  5.10204703000E+06  3.52750000000E+02     18.752
  3.20476920000E+05  5.10204703000E+06  3.69110000000E+02     18.261
  3.20276920000E+05  5.10184703000E+06  3.67930000000E+02     18.296
  3.20376920000E+05  5.10184703000E+06  3.63630000000E+02     18.425
  3.20476920000E+05  5.10184703000E+06  3.66550000000E+02     18.338
  3.19276920000E+05  5.10194703000E+06  3.48390000000E+02     18.883
  3.19376920000E+05  5.10194703000E+06  3.51870000000E+02     18.778
  3.19476920000E+05  5.10194703000E+06  3.60910000000E+02     18.507
  3.19576920000E+05  5.10194703000E+06  3.64460000000E+02     18.401
  3.19676920000E+05  5.10194703000E+06  3.70900000000E+02     18.207
  3.19776920000E+05  5.10194703000E+06  3.72570000000E+02     18.157
  3.19876920000E+05  5.10194703000E+06  3.64570000000E+02     18.397
  3.19976920000E+05  5.10194703000E+06  3.52810000000E+02     18.750
  3.20076920000E+05  5.10194703000E+06  3.52780000000E+02     18.751
  3.20176920000E+05  5.10194703000E+06  3.52770000000E+02     18.751
  3.20276920000E+05  5.10194703000E+06  3.52750000000E+02     18.752
  3.20376920000E+05  5.10194703000E+06  3.52760000000E+02     18.752
  3.18776920000E+05  5.10224703000E+06  3.39260000000E+02     19.157
  3.18876920000E+05  5.10224703000E+06  3.47780000000E+02     18.901
  3.18976920000E+05  5.10224703000E+06  3.42280000000E+02     19.066
  3.19076920000E+05  5.10224703000E+06  3.42150000000E+02     19.070
  3.19176920000E+05  5.10224703000E+06  3.46350000000E+02     18.944
  3.19276920000E+05  5.10224703000E+06  3.51560000000E+02     18.788
  3.19376920000E+05  5.10224703000E+06  3.47500000000E+02     18.909
  3.19476920000E+05  5.10224703000E+06  3.67350000000E+02     18.314
  3.19576920000E+05  5.10224703000E+06  3.71420000000E+02     18.192
  3.19676920000E+05  5.10224703000E+06  3.78570000000E+02     17.977
  3.19776920000E+05  5.10224703000E+06  3.74620000000E+02     18.096
  3.19876920000E+05  5.10224703000E+06  3.73160000000E+02     18.140
  3.19976920000E+05  5.10224703000E+06  3.73120000000E+02     18.141
  3.20076920000E+05  5.10224703000E+06  3.70970000000E+02     18.205
  3.20176920000E+05  5.10224703000E+06  3.66380000000E+02     18.343
  3.20276920000E+05  5.10224703000E+06  3.61140000000E+02     18.500
  3.20376920000E+05  5.10224703000E+06  3.64970000000E+02     18.385
  3.20476920000E+05  5.10224703000E+06  3.72210000000E+02     18.168
  3.18276920000E+05  5.10214703000E+06  3.39530000000E+02     19.148
  3.18876920000E+05  5.10214703000E+06  3.43260000000E+02     19.037
  3.18976920000E+05  5.10214703000E+06  3.39160000000E+02     19.160
  3.19076920000E+05  5.10214703000E+06  3.37750000000E+02     19.202
  3.19176920000E+05  5.10214703000E+06  3.38550000000E+02     19.178
  3.19276920000E+05  5.10214703000E+06  3.38680000000E+02     19.174
  3.19376920000E+05  5.10214703000E+06  3.48370000000E+02     18.883
  3.19476920000E+05  5.10214703000E+06  3.62660000000E+02     18.454
  3.19576920000E+05  5.10214703000E+06  3.66990000000E+02     18.325
  3.19676920000E+05  5.10214703000E+06  3.65270000000E+02     18.376
  3.19776920000E+05  5.10214703000E+06  3.70710000000E+02     18.213
  3.19876920000E+05  5.10214703000E+06  3.67360000000E+02     18.314
  3.19976920000E+05  5.10214703000E+06  3.53020000000E+02     18.744
  3.20076920000E+05  5.10214703000E+06  3.52770000000E+02     18.751
  3.20176920000E+05  5.10214703000E+06  3.52840000000E+02     18.749
  3.20276920000E+05  5.10214703000E+06  3.52750000000E+02     18.752
  3.20376920000E+05  5.10214703000E+06  3.52680000000E+02     18.754
  3.20476920000E+05  5.10214703000E+06  3.70320000000E+02     18.225
  3.18976920000E+05  5.10244703000E+06  3.38240000000E+02     19.187
  3.19176920000E+05  5.10244703000E+06  3.45770000000E+02     18.961
  3.19276920000E+05  5.10244703000E+06  3.50480000000E+02     18.820
  3.19376920000E+05  5.10244703000E+06  3.68810000000E+02     18.270
  3.19476920000E+05  5.10244703000E+06  3.76550000000E+02     18.038
  3.19576920000E+05  5.10244703000E+06  3.78630000000E+02     17.975
  3.19676920000E+05  5.10244703000E+06  3.80250000000E+02     17.927
  3.19776920000E+05  5.10244703000E+06  3.79130000000E+02     17.960
  3.19876920000E+05  5.10244703000E+06  3.77060000000E+02     18.023
  3.19976920000E+05  5.10244703000E+06  3.77750000000E+02     18.002
  3.20076920000E+05  5.10244703000E+06  3.87000000000E+02     17.724
  3.20176920000E+05  5.10244703000E+06  3.87000000000E+02     17.724
  3.20276920000E+05  5.10244703000E+06  3.86060000000E+02     17.753
  3.20376920000E+05  5.10244703000E+06  3.87000000000E+02     17.724
  3.20476920000E+05  5.10244703000E+06  3.87000000000E+02     17.724
  3.18476920000E+05  5.10254703000E+06  3.48600000000E+02     18.876
  3.18576920000E+05  5.10254703000E+06  3.37510000000E+02     19.209
  3.18876920000E+05  5.10234703000E+06  3.47280000000E+02     18.916
  3.18976920000E+05  5.10234703000E+06  3.48440000000E+02     18.881
  3.19076920000E+05  5.10234703000E+06  3.41770000000E+02     19.081
  3.19176920000E+05  5.10234703000E+06  3.50500000000E+02     18.819
  3.19276920000E+05  5.10234703000E+06  3.53940000000E+02     18.716
  3.19376920000E+05  5.10234703000E+06  3.56870000000E+02     18.628
  3.19476920000E+05  5.10234703000E+06  3.68010000000E+02     18.294
  3.19576920000E+05  5.10234703000E+06  3.74930000000E+02     18.086
  3.19676920000E+05  5.10234703000E+06  3.80100000000E+02     17.931
  3.19776920000E+05  5.10234703000E+06  3.83650000000E+02     17.825
  3.19876920000E+05  5.10234703000E+06  3.75890000000E+02     18.058
  3.19976920000E+05  5.10234703000E+06  3.77250000000E+02     18.017
  3.20076920000E+05  5.10234703000E+06  3.77930000000E+02     17.996
  3.20176920000E+05  5.10234703000E+06  3.80290000000E+02     17.926
  3.20276920000E+05  5.10234703000E+06  3.67560000000E+02     18.308
  3.20376920000E+05  5.10234703000E+06  3.68270000000E+02     18.286
  3.20476920000E+05  5.10234703000E+06  3.73740000000E+02     18.122
  3.18376920000E+05  5.10244703000E+06  3.38570000000E+02     19.177
  3.19276920000E+05  5.10264703000E+06  3.45480000000E+02     18.970
  3.19376920000E+05  5.10264703000E+06  3.52770000000E+02     18.751
  3.19476920000E+05  5.10264703000E+06  3.64770000000E+02     18.391
  3.19576920000E+05  5.10264703000E+06  3.82760000000E+02     17.852
  3.19676920000E+05  5.10264703000E+06  3.87000000000E+02     17.724
  3.19776920000E+05  5.10264703000E+06  3.80440000000E+02     17.921
  3.19876920000E+05  5.10264703000E+06  3.76720000000E+02     18.033
  3.19976920000E+05  5.10264703000E+06  3.78210000000E+02     17.988
  3.20076920000E+05  5.10264703000E+06  3.79940000000E+02     17.936
  3.20176920000E+05  5.10264703000E+06  3.87000000000E+02     17.724
  3.20276920000E+05  5.10264703000E+06  3.87000000000E+02     17.724
  3.20376920000E+05  5.10264703000E+06  3.87000000000E+02     17.724
  3.20476920000E+05  5.10264703000E+06  3.87000000000E+02     17.724
  3.19376920000E+05  5.10274703000E+06  3.47350000000E+02     18.914
  3.19176920000E+05  5.10254703000E+06  3.43000000000E+02     19.044
  3.19276920000E+05  5.10254703000E+06  3.47940000000E+02     18.896
  3.19376920000E+05  5.10254703000E+06  3.67320000000E+02     18.315
  3.19476920000E+05  5.10254703000E+06  3.83650000000E+02     17.825
  3.19576920000E+05  5.10254703000E+06  3.83840000000E+02     17.819
  3.19676920000E+05  5.10254703000E+06  3.80660000000E+02     17.915
  3.19776920000E+05  5.10254703000E+06  3.77720000000E+02     18.003
  3.19876920000E+05  5.10254703000E+06  3.76120000000E+02     18.051
  3.19976920000E+05  5.10254703000E+06  3.77150000000E+02     18.020
  3.20076920000E+05  5.10254703000E+06  3.87000000000E+02     17.724
  3.20176920000E+05  5.10254703000E+06  3.87000000000E+02     17.724
  3.20276920000E+05  5.10254703000E+06  3.87000000000E+02     17.724
  3.20376920000E+05  5.10254703000E+06  3.87000000000E+02     17.724
  3.20476920000E+05  5.10254703000E+06  3.87000000000E+02     17.724
  3.18476920000E+05  5.10264703000E+06  3.40470000000E+02     19.120
  3.18576920000E+05  5.10264703000E+06  3.45750000000E+02     18.962
  3.19676920000E+05  5.10284703000E+06  3.60260000000E+02     18.526
  3.19776920000E+05  5.10284703000E+06  3.69740000000E+02     18.242
  3.19876920000E+05  5.10284703000E+06  3.72740000000E+02     18.152
  3.19976920000E+05  5.10284703000E+06  3.59230000000E+02     18.557
  3.20076920000E+05  5.10284703000E+06  3.65850000000E+02     18.359
  3.20176920000E+05  5.10284703000E+06  3.78070000000E+02     17.992
  3.20276920000E+05  5.10284703000E+06  3.83440000000E+02     17.831
  3.20376920000E+05  5.10284703000E+06  3.87000000000E+02     17.724
  3.20476920000E+05  5.10284703000E+06  3.87000000000E+02     17.724
  3.19576920000E+05  5.10294703000E+06  3.44820000000E+02     18.990
  3.19676920000E+05  5.10294703000E+06  3.54100000000E+02     18.711
  3.19776920000E+05  5.10294703000E+06  3.58220000000E+02     18.588
  3.19476920000E+05  5.10274703000E+06  3.58490000000E+02     18.580
  3.19576920000E+05  5.10274703000E+06  3.87000000000E+02     17.724
  3.19676920000E+05  5.10274703000E+06  3.86430000000E+02     17.741
  3.19776920000E+05  5.10274703000E+06  3.81970000000E+02     17.875
  3.19876920000E+05  5.10274703000E+06  3.78100000000E+02     17.991
  3.19976920000E+05  5.10274703000E+06  3.79150000000E+02     17.960
  3.20076920000E+05  5.10274703000E+06  3.77060000000E+02     18.023
  3.20176920000E+05  5.10274703000E+06  3.79890000000E+02     17.938
  3.20276920000E+05  5.10274703000E+06  3.87000000000E+02     17.724
  3.20376920000E+05  5.10274703000E+06  3.87000000000E+02     17.724
  3.20476920000E+05  5.10274703000E+06  3.87000000000E+02     17.724
  3.19476920000E+05  5.10284703000E+06  3.48000000000E+02     18.894
  3.19576920000E+05  5.10284703000E+06  3.62060000000E+02     18.473
  3.20076920000E+05  5.10304703000E+06  3.38770000000E+02     19.171
  3.20176920000E+05  5.10304703000E+06  3.37830000000E+02     19.199
  3.20276920000E+05  5.10304703000E+06  3.48530000000E+02     18.878