Title="TOUGHREACT V4.13omp : Mineral Reaction Rate (mol/kg H2O/s)"
Variables= "X(m)"   "Y(m)"   "Z(m)"       "T(C)"      "magnesite"         "quartz"      "kaolinite"         "illite"     "oligoclase"    "smectite-na"     "k-feldspar"       "chlorite"       "hematite"       "pyrite-2"    "smectite-ca"     "albite~low"     "dolomite-2"     "siderite-2"     "ankerite-2"      "dawsonite"
Zone T= "3.15569000E+07 sec" I=    1120 J=       1 K=       1 F=Point
  5.00000000000E-01  0.00000000000E+00 -1.00000000000E+00     75.000  0.000000E+00 -8.995218E-12 -1.329791E-12 -1.846715E-11  1.361755E-11 -3.792186E-11  2.950979E-12  1.380053E-11  2.621070E-14  0.000000E+00 -1.147392E-15  7.852772-251  0.000000E+00 -1.254748E-12 -3.030532E-14  1.056348E-84
  5.00000000000E-01  0.00000000000E+00 -3.00000000000E+00     75.000  0.000000E+00 -8.996037E-12 -1.322944E-12 -1.845679E-11  1.361236E-11 -3.792227E-11  2.949100E-12  1.379867E-11  2.617559E-14  0.000000E+00 -1.147133E-15  1.813532-271  0.000000E+00 -1.268053E-12 -3.504642E-14  2.546156E-85
  5.00000000000E-01  0.00000000000E+00 -5.00000000000E+00     75.000  0.000000E+00 -8.998658E-12 -1.316358E-12 -1.844447E-11  1.360776E-11 -3.792720E-11  2.947344E-12  1.379694E-11  2.614541E-14  0.000000E+00 -1.147059E-15  5.468809-291  0.000000E+00 -1.280700E-12 -3.955806E-14  2.374852E-86
  5.00000000000E-01  0.00000000000E+00 -7.00000000000E+00     75.000  0.000000E+00 -9.002655E-12 -1.310019E-12 -1.843092E-11  1.360353E-11 -3.793480E-11  2.945573E-12  1.379532E-11  2.611797E-14  0.000000E+00 -1.147096E-15  2.940654-307  0.000000E+00 -1.292433E-12 -4.373754E-14  1.261733E-86
  5.00000000000E-01  0.00000000000E+00 -9.00000000000E+00     75.000  0.000000E+00 -9.007645E-12 -1.304145E-12 -1.841686E-11  1.359978E-11 -3.794439E-11  2.943889E-12  1.379385E-11  2.609418E-14  0.000000E+00 -1.147229E-15  0.000000E+00  0.000000E+00 -1.302988E-12 -4.749065E-14  2.341438E-87
  5.00000000000E-01  0.00000000000E+00 -1.10000000000E+01     75.000  0.000000E+00 -9.013305E-12 -1.299101E-12 -1.840319E-11  1.359697E-11 -3.795623E-11  2.942560E-12  1.379267E-11  2.607693E-14  0.000000E+00 -1.147481E-15  0.000000E+00  0.000000E+00 -1.312117E-12 -5.073410E-14  1.495672E-88
  5.00000000000E-01  0.00000000000E+00 -1.30000000000E+01     75.000  0.000000E+00 -9.019076E-12 -1.295219E-12 -1.839088E-11  1.359554E-11 -3.797050E-11  2.941922E-12  1.379188E-11  2.606940E-14  0.000000E+00 -1.147871E-15  0.000000E+00  0.000000E+00 -1.319887E-12 -5.350609E-14  8.277587E-89
  5.00000000000E-01  0.00000000000E+00 -1.50000000000E+01     75.000  0.000000E+00 -9.025068E-12 -1.292709E-12 -1.837961E-11  1.359544E-11 -3.798700E-11  2.942001E-12  1.379125E-11  2.607300E-14  0.000000E+00 -1.148405E-15  0.000000E+00  0.000000E+00 -1.325677E-12 -5.559208E-14  4.467292E-89
  5.00000000000E-01  0.00000000000E+00 -1.70000000000E+01     75.000  0.000000E+00 -9.031422E-12 -1.291664E-12 -1.837006E-11  1.359711E-11 -3.800666E-11  2.942919E-12  1.379116E-11  2.608873E-14  0.000000E+00 -1.149117E-15  0.000000E+00  0.000000E+00 -1.329452E-12 -5.696881E-14  3.215407E-89
  5.00000000000E-01  0.00000000000E+00 -1.90000000000E+01     75.000  0.000000E+00 -9.037519E-12 -1.292217E-12 -1.836288E-11  1.360055E-11 -3.802855E-11  2.944759E-12  1.379160E-11  2.611676E-14  0.000000E+00 -1.149983E-15  0.000000E+00  0.000000E+00 -1.331232E-12 -5.765024E-14  4.449135E-89
  5.00000000000E-01  0.00000000000E+00 -2.10000000000E+01     75.000  0.000000E+00 -9.043339E-12 -1.294670E-12 -1.835809E-11  1.360609E-11 -3.805354E-11  2.947765E-12  1.379254E-11  2.616038E-14  0.000000E+00 -1.151054E-15  0.000000E+00  0.000000E+00 -1.330833E-12 -5.758347E-14  8.516423E-89
  5.00000000000E-01  0.00000000000E+00 -2.30000000000E+01     75.000  0.000000E+00 -9.133388E-12 -1.274320E-12 -1.826098E-11  1.361202E-11 -3.821650E-11  2.939307E-12  1.379111E-11  2.622445E-14  0.000000E+00 -1.154033E-15  0.000000E+00  0.000000E+00 -1.336774E-12 -5.970131E-14  1.715423E-88
  5.00000000000E-01  0.00000000000E+00 -2.50000000000E+01     75.000  0.000000E+00 -1.778464E-11 -5.848989E-14 -1.083918E-11  1.321350E-11 -4.651725E-11  1.233814E-12  1.343304E-11  2.514393E-14  0.000000E+00 -1.187055E-15  0.000000E+00  0.000000E+00 -2.199611E-12 -3.627113E-13  3.438633E-91
  5.00000000000E-01  0.00000000000E+00 -2.70000000000E+01     75.000  0.000000E+00 -5.317401E-11  3.596485E-13 -2.259249E-12  1.167302E-11 -4.786331E-11 -4.707593E-12  1.193032E-11  2.179174E-14  0.000000E+00 -8.558040E-16 -7.395068E-16  0.000000E+00 -2.566317E-13  0.000000E+00  0.000000E+00
  5.00000000000E-01  0.00000000000E+00 -2.90000000000E+01     75.000  0.000000E+00 -4.285756E-11  3.350879E-13 -3.737079E-12  1.172380E-11 -4.610759E-11 -4.713167E-12  1.194228E-11  2.215873E-14  0.000000E+00 -8.274561E-16 -7.212178E-16  0.000000E+00  0.000000E+00  0.000000E+00  0.000000E+00
  5.00000000000E-01  0.00000000000E+00 -3.10000000000E+01     75.000  0.000000E+00 -3.836963E-11  3.029824E-13 -4.868008E-12  1.174056E-11 -4.448164E-11 -5.123532E-12  1.194533E-11  2.228702E-14  0.000000E+00 -7.970621E-16 -7.750349E-16  0.000000E+00  0.000000E+00  0.000000E+00  0.000000E+00
  5.00000000000E-01  0.00000000000E+00 -3.30000000000E+01     75.000  0.000000E+00 -3.210399E-11  2.374761E-13 -6.802257E-12  1.189217E-11 -4.509517E-11 -4.080396E-12  1.209036E-11  2.263802E-14  0.000000E+00 -8.417158E-16 -6.403491E-16  0.000000E+00  0.000000E+00  0.000000E+00  1.236490E-22
  5.00000000000E-01  0.00000000000E+00 -3.50000000000E+01     75.000  0.000000E+00 -3.277421E-11  2.452710E-13 -6.592744E-12  1.185909E-11 -4.513622E-11 -4.246852E-12  1.205492E-11  2.258741E-14  0.000000E+00 -8.381517E-16 -6.627384E-16  0.000000E+00  0.000000E+00  0.000000E+00  1.155650E-22
  5.00000000000E-01  0.00000000000E+00 -3.70000000000E+01     75.000  0.000000E+00 -3.293949E-11  2.470266E-13 -6.542907E-12  1.185113E-11 -4.515140E-11 -4.287678E-12  1.204564E-11  2.258044E-14  0.000000E+00 -8.374083E-16 -6.681921E-16  0.000000E+00  0.000000E+00  0.000000E+00  1.138095E-22
  5.00000000000E-01  0.00000000000E+00 -3.90000000000E+01     75.000  0.000000E+00 -3.293911E-11  2.469628E-13 -6.543096E-12  1.185133E-11 -4.515494E-11 -4.286898E-12  1.204506E-11  2.258613E-14  0.000000E+00 -8.375002E-16 -6.680650E-16  0.000000E+00  0.000000E+00  0.000000E+00  1.142136E-22
  1.60700000000E+00  0.00000000000E+00 -1.00000000000E+00     75.000  0.000000E+00 -8.995031E-12 -1.329878E-12 -1.846734E-11  1.361758E-11 -3.792166E-11  2.951033E-12  1.380055E-11  2.621077E-14  0.000000E+00 -1.147399E-15  8.480064-251  0.000000E+00 -1.254704E-12 -3.028920E-14  1.059300E-84
  1.60700000000E+00  0.00000000000E+00 -3.00000000000E+00     75.000  0.000000E+00 -8.995933E-12 -1.322987E-12 -1.845692E-11  1.361236E-11 -3.792210E-11  2.949118E-12  1.379867E-11  2.617562E-14  0.000000E+00 -1.147132E-15  1.986465-271  0.000000E+00 -1.268013E-12 -3.503240E-14  2.581155E-85
  1.60700000000E+00  0.00000000000E+00 -5.00000000000E+00     75.000  0.000000E+00 -8.998618E-12 -1.316387E-12 -1.844456E-11  1.360778E-11 -3.792711E-11  2.947349E-12  1.379695E-11  2.614544E-14  0.000000E+00 -1.147057E-15  9.877831-291  0.000000E+00 -1.280646E-12 -3.953843E-14  2.377807E-86
  1.60700000000E+00  0.00000000000E+00 -7.00000000000E+00     75.000  0.000000E+00 -9.002619E-12 -1.310043E-12 -1.843099E-11  1.360353E-11 -3.793469E-11  2.945574E-12  1.379532E-11  2.611799E-14  0.000000E+00 -1.147093E-15  4.148008-307  0.000000E+00 -1.292375E-12 -4.371675E-14  1.265671E-86
  1.60700000000E+00  0.00000000000E+00 -9.00000000000E+00     75.000  0.000000E+00 -9.007601E-12 -1.304169E-12 -1.841695E-11  1.359980E-11 -3.794430E-11  2.943894E-12  1.379386E-11  2.609421E-14  0.000000E+00 -1.147226E-15  0.000000E+00  0.000000E+00 -1.302945E-12 -4.747531E-14  2.382433E-87
  1.60700000000E+00  0.00000000000E+00 -1.10000000000E+01     75.000  0.000000E+00 -9.013249E-12 -1.299119E-12 -1.840329E-11  1.359698E-11 -3.795612E-11  2.942564E-12  1.379268E-11  2.607694E-14  0.000000E+00 -1.147477E-15  0.000000E+00  0.000000E+00 -1.312095E-12 -5.072621E-14  1.500027E-88
  1.60700000000E+00  0.00000000000E+00 -1.30000000000E+01     75.000  0.000000E+00 -9.019063E-12 -1.295234E-12 -1.839099E-11  1.359558E-11 -3.797052E-11  2.941931E-12  1.379192E-11  2.606946E-14  0.000000E+00 -1.147871E-15  0.000000E+00  0.000000E+00 -1.319873E-12 -5.349994E-14  8.298805E-89
  1.60700000000E+00  0.00000000000E+00 -1.50000000000E+01     75.000  0.000000E+00 -9.025028E-12 -1.292719E-12 -1.837971E-11  1.359546E-11 -3.798692E-11  2.942003E-12  1.379127E-11  2.607297E-14  0.000000E+00 -1.148402E-15  0.000000E+00  0.000000E+00 -1.325663E-12 -5.558683E-14  4.497843E-89
  1.60700000000E+00  0.00000000000E+00 -1.70000000000E+01     75.000  0.000000E+00 -9.031436E-12 -1.291672E-12 -1.837014E-11  1.359713E-11 -3.800662E-11  2.942909E-12  1.379119E-11  2.608866E-14  0.000000E+00 -1.149114E-15  0.000000E+00  0.000000E+00 -1.329397E-12 -5.694735E-14  3.227664E-89
  1.60700000000E+00  0.00000000000E+00 -1.90000000000E+01     75.000  0.000000E+00 -9.037532E-12 -1.292220E-12 -1.836295E-11  1.360054E-11 -3.802843E-11  2.944733E-12  1.379162E-11  2.611653E-14  0.000000E+00 -1.149977E-15  0.000000E+00  0.000000E+00 -1.331144E-12 -5.761661E-14  4.486050E-89
  1.60700000000E+00  0.00000000000E+00 -2.10000000000E+01     75.000  0.000000E+00 -9.043207E-12 -1.294667E-12 -1.835830E-11  1.360603E-11 -3.805306E-11  2.947725E-12  1.379256E-11  2.615970E-14  0.000000E+00 -1.151037E-15  0.000000E+00  0.000000E+00 -1.330771E-12 -5.755830E-14  8.515142E-89
  1.60700000000E+00  0.00000000000E+00 -2.30000000000E+01     75.000  0.000000E+00 -9.103473E-12 -1.283357E-12 -1.829508E-11  1.361316E-11 -3.816987E-11  2.944038E-12  1.379233E-11  2.622618E-14  0.000000E+00 -1.153477E-15  0.000000E+00  0.000000E+00 -1.333474E-12 -5.856613E-14  1.706517E-88
  1.60700000000E+00  0.00000000000E+00 -2.50000000000E+01     75.000  0.000000E+00 -1.543497E-11 -2.201881E-13 -1.242413E-11  1.332301E-11 -4.505147E-11  1.753780E-12  1.353148E-11  2.544047E-14  0.000000E+00 -1.194873E-15  0.000000E+00  0.000000E+00 -1.992712E-12 -2.878285E-13  5.350659E-89
  1.60700000000E+00  0.00000000000E+00 -2.70000000000E+01     75.000  0.000000E+00 -5.065690E-11  3.573123E-13 -2.443268E-12  1.169455E-11 -4.802162E-11 -4.174436E-12  1.195336E-11  2.182459E-14  0.000000E+00 -8.733474E-16 -6.693380E-16  0.000000E+00 -4.390636E-13  6.673262E-13  7.774588E-90
  1.60700000000E+00  0.00000000000E+00 -2.90000000000E+01     75.000  0.000000E+00 -3.984238E-11  3.276344E-13 -4.137135E-12  1.179209E-11 -4.635685E-11 -3.883711E-12  1.201361E-11  2.227549E-14  0.000000E+00 -8.534531E-16 -6.121582E-16  0.000000E+00  0.000000E+00  0.000000E+00  0.000000E+00
  1.60700000000E+00  0.00000000000E+00 -3.10000000000E+01     75.000  0.000000E+00 -3.848653E-11  3.085586E-13 -4.722445E-12  1.173781E-11 -4.480962E-11 -4.811822E-12  1.194505E-11  2.226446E-14  0.000000E+00 -8.069910E-16 -7.329119E-16  0.000000E+00  0.000000E+00  0.000000E+00  0.000000E+00
  1.60700000000E+00  0.00000000000E+00 -3.30000000000E+01     75.000  0.000000E+00 -3.603166E-11  2.819429E-13 -5.472202E-12  1.174441E-11 -4.436879E-11 -4.845653E-12  1.194362E-11  2.233293E-14  0.000000E+00 -8.049286E-16 -7.404909E-16  0.000000E+00  0.000000E+00  0.000000E+00  8.342364E-22
  1.60700000000E+00  0.00000000000E+00 -3.50000000000E+01     75.000  0.000000E+00 -3.165260E-11  2.398232E-13 -6.670401E-12  1.192546E-11 -4.416096E-11 -3.789334E-12  1.212409E-11  2.270214E-14  0.000000E+00 -8.274081E-16 -5.990841E-16  0.000000E+00  0.000000E+00  0.000000E+00  1.401073E-17
  1.60700000000E+00  0.00000000000E+00 -3.70000000000E+01     75.000  0.000000E+00 -3.232169E-11  2.476755E-13 -6.463812E-12  1.189205E-11 -4.420257E-11 -3.950036E-12  1.208941E-11  2.264344E-14  0.000000E+00 -8.238324E-16 -6.208592E-16  0.000000E+00  0.000000E+00  0.000000E+00  1.352544E-17
  1.60700000000E+00  0.00000000000E+00 -3.90000000000E+01     75.000  0.000000E+00 -3.213938E-11  2.455425E-13 -6.519067E-12  1.190131E-11 -4.419398E-11 -3.905336E-12  1.209820E-11  2.266541E-14  0.000000E+00 -8.248706E-16 -6.147907E-16  0.000000E+00  0.000000E+00  0.000000E+00  1.365761E-17
  2.95300000000E+00  0.00000000000E+00 -1.00000000000E+00     75.000  0.000000E+00 -8.994934E-12 -1.329927E-12 -1.846756E-11  1.361759E-11 -3.792136E-11  2.951028E-12  1.380056E-11  2.621080E-14  0.000000E+00 -1.147387E-15  9.807718-251  0.000000E+00 -1.254585E-12 -3.024735E-14  1.065221E-84
  2.95300000000E+00  0.00000000000E+00 -3.00000000000E+00     75.000  0.000000E+00 -8.995795E-12 -1.323036E-12 -1.845716E-11  1.361239E-11 -3.792184E-11  2.949132E-12  1.379869E-11  2.617567E-14  0.000000E+00 -1.147123E-15  2.312584-271  0.000000E+00 -1.267952E-12 -3.501106E-14  2.642547E-85
  2.95300000000E+00  0.00000000000E+00 -5.00000000000E+00     75.000  0.000000E+00 -8.998573E-12 -1.316435E-12 -1.844474E-11  1.360781E-11 -3.792699E-11  2.947355E-12  1.379698E-11  2.614553E-14  0.000000E+00 -1.147053E-15  1.661648-290  0.000000E+00 -1.280541E-12 -3.949985E-14  2.382606E-86
  2.95300000000E+00  0.00000000000E+00 -7.00000000000E+00     75.000  0.000000E+00 -9.002567E-12 -1.310098E-12 -1.843115E-11  1.360355E-11 -3.793448E-11  2.945572E-12  1.379534E-11  2.611804E-14  0.000000E+00 -1.147087E-15  6.937769-307  0.000000E+00 -1.292230E-12 -4.366405E-14  1.274012E-86
  2.95300000000E+00  0.00000000000E+00 -9.00000000000E+00     75.000  0.000000E+00 -9.007546E-12 -1.304231E-12 -1.841716E-11  1.359983E-11 -3.794410E-11  2.943895E-12  1.379389E-11  2.609429E-14  0.000000E+00 -1.147220E-15  0.000000E+00  0.000000E+00 -1.302785E-12 -4.741693E-14  2.484717E-87
  2.95300000000E+00  0.00000000000E+00 -1.10000000000E+01     75.000  0.000000E+00 -9.013176E-12 -1.299179E-12 -1.840348E-11  1.359699E-11 -3.795583E-11  2.942558E-12  1.379269E-11  2.607695E-14  0.000000E+00 -1.147468E-15  0.000000E+00  0.000000E+00 -1.311925E-12 -5.066498E-14  1.513504E-88
  2.95300000000E+00  0.00000000000E+00 -1.30000000000E+01     75.000  0.000000E+00 -9.019025E-12 -1.295293E-12 -1.839123E-11  1.359562E-11 -3.797035E-11  2.941930E-12  1.379198E-11  2.606950E-14  0.000000E+00 -1.147865E-15  0.000000E+00  0.000000E+00 -1.319708E-12 -5.343861E-14  8.417866E-89
  2.95300000000E+00  0.00000000000E+00 -1.50000000000E+01     75.000  0.000000E+00 -9.024991E-12 -1.292767E-12 -1.837998E-11  1.359551E-11 -3.798679E-11  2.942002E-12  1.379134E-11  2.607296E-14  0.000000E+00 -1.148396E-15  0.000000E+00  0.000000E+00 -1.325532E-12 -5.553664E-14  4.591418E-89
  2.95300000000E+00  0.00000000000E+00 -1.70000000000E+01     75.000  0.000000E+00 -9.031337E-12 -1.291698E-12 -1.837036E-11  1.359711E-11 -3.800624E-11  2.942884E-12  1.379121E-11  2.608837E-14  0.000000E+00 -1.149099E-15  0.000000E+00  0.000000E+00 -1.329279E-12 -5.690368E-14  3.305468E-89
  2.95300000000E+00  0.00000000000E+00 -1.90000000000E+01     75.000  0.000000E+00 -9.037536E-12 -1.292212E-12 -1.836323E-11  1.360057E-11 -3.802829E-11  2.944697E-12  1.379173E-11  2.611605E-14  0.000000E+00 -1.149967E-15  0.000000E+00  0.000000E+00 -1.331066E-12 -5.758282E-14  4.514603E-89
  2.95300000000E+00  0.00000000000E+00 -2.10000000000E+01     75.000  0.000000E+00 -9.043085E-12 -1.294563E-12 -1.835857E-11  1.360588E-11 -3.805234E-11  2.947605E-12  1.379262E-11  2.615797E-14  0.000000E+00 -1.151002E-15  0.000000E+00  0.000000E+00 -1.330776E-12 -5.755240E-14  8.437394E-89
  2.95300000000E+00  0.00000000000E+00 -2.30000000000E+01     75.000  0.000000E+00 -9.071955E-12 -1.292525E-12 -1.833079E-11  1.361382E-11 -3.811926E-11  2.948667E-12  1.379352E-11  2.622379E-14  0.000000E+00 -1.152811E-15  0.000000E+00  0.000000E+00 -1.330261E-12 -5.745404E-14  1.652934E-88
  2.95300000000E+00  0.00000000000E+00 -2.50000000000E+01     75.000  0.000000E+00 -1.141583E-11 -7.288825E-13 -1.586219E-11  1.351213E-11 -4.128160E-11  2.540786E-12  1.369664E-11  2.598717E-14  0.000000E+00 -1.180588E-15  0.000000E+00  0.000000E+00 -1.578933E-12 -1.432225E-13  3.369848E-88
  2.95300000000E+00  0.00000000000E+00 -2.70000000000E+01     75.000  0.000000E+00 -5.504837E-11  3.618667E-13 -2.048366E-12  1.165811E-11 -4.814175E-11 -4.605514E-12  1.192612E-11  2.168925E-14  0.000000E+00 -8.634519E-16 -7.324213E-16  0.000000E+00 -5.159079E-13 -3.364226E-14  0.000000E+00
  2.95300000000E+00  0.00000000000E+00 -2.90000000000E+01     75.000  0.000000E+00 -4.536783E-11  3.443306E-13 -3.254432E-12  1.171146E-11 -4.679220E-11 -4.540042E-12  1.193949E-11  2.206822E-14  0.000000E+00 -8.434220E-16 -7.031136E-16  0.000000E+00  0.000000E+00  0.000000E+00  0.000000E+00
  2.95300000000E+00  0.00000000000E+00 -3.10000000000E+01     75.000  0.000000E+00 -3.904324E-11  3.162531E-13 -4.472103E-12  1.173389E-11 -4.530234E-11 -4.487346E-12  1.194426E-11  2.223484E-14  0.000000E+00 -8.212287E-16 -6.900702E-16  0.000000E+00  0.000000E+00  0.000000E+00  0.000000E+00
  2.95300000000E+00  0.00000000000E+00 -3.30000000000E+01     75.000  0.000000E+00 -3.744108E-11  2.974299E-13 -5.039336E-12  1.174296E-11 -4.458768E-11 -4.855428E-12  1.194438E-11  2.231473E-14  0.000000E+00 -8.055636E-16 -7.402415E-16  0.000000E+00  0.000000E+00  0.000000E+00  3.642095E-20
  2.95300000000E+00  0.00000000000E+00 -3.50000000000E+01     75.000  0.000000E+00 -2.964549E-11  2.214544E-13 -7.183546E-12  1.205318E-11 -4.408853E-11 -3.107562E-12  1.225654E-11  2.292734E-14  0.000000E+00 -8.435456E-16 -5.044021E-16  0.000000E+00  0.000000E+00  0.000000E+00  1.917911E-17
  2.95300000000E+00  0.00000000000E+00 -3.70000000000E+01     75.000  0.000000E+00 -3.110392E-11  2.414628E-13 -6.700644E-12  1.197963E-11 -4.422484E-11 -3.435060E-12  1.218137E-11  2.279005E-14  0.000000E+00 -8.359519E-16 -5.496248E-16  0.000000E+00  0.000000E+00  0.000000E+00  1.520415E-17
  2.95300000000E+00  0.00000000000E+00 -3.90000000000E+01     75.000  0.000000E+00 -3.043891E-11  2.327423E-13 -6.915717E-12  1.201324E-11 -4.417091E-11 -3.284152E-12  1.221490E-11  2.285840E-14  0.000000E+00 -8.395325E-16 -5.288350E-16  0.000000E+00  0.000000E+00  0.000000E+00  1.679270E-17
  4.58600000000E+00  0.00000000000E+00 -1.00000000000E+00     75.000  0.000000E+00 -8.994755E-12 -1.330053E-12 -1.846795E-11  1.361762E-11 -3.792085E-11  2.951036E-12  1.380059E-11  2.621089E-14  0.000000E+00 -1.147373E-15  1.826427-249  0.000000E+00 -1.254307E-12 -3.014750E-14  1.076266E-84
  4.58600000000E+00  0.00000000000E+00 -3.00000000000E+00     75.000  0.000000E+00 -8.995630E-12 -1.323160E-12 -1.845758E-11  1.361243E-11 -3.792137E-11  2.949140E-12  1.379874E-11  2.617579E-14  0.000000E+00 -1.147109E-15  3.376876-271  0.000000E+00 -1.267678E-12 -3.491228E-14  2.770149E-85
  4.58600000000E+00  0.00000000000E+00 -5.00000000000E+00     75.000  0.000000E+00 -8.998418E-12 -1.316552E-12 -1.844513E-11  1.360785E-11 -3.792654E-11  2.947361E-12  1.379702E-11  2.614564E-14  0.000000E+00 -1.147040E-15  4.522986-290  0.000000E+00 -1.280273E-12 -3.940322E-14  2.395935E-86
  4.58600000000E+00  0.00000000000E+00 -7.00000000000E+00     75.000  0.000000E+00 -9.002441E-12 -1.310213E-12 -1.843155E-11  1.360361E-11 -3.793411E-11  2.945582E-12  1.379539E-11  2.611820E-14  0.000000E+00 -1.147076E-15  1.136674-306  0.000000E+00 -1.291967E-12 -4.356840E-14  1.289240E-86
  4.58600000000E+00  0.00000000000E+00 -9.00000000000E+00     75.000  0.000000E+00 -9.007422E-12 -1.304344E-12 -1.841754E-11  1.359988E-11 -3.794369E-11  2.943899E-12  1.379394E-11  2.609441E-14  0.000000E+00 -1.147208E-15  0.000000E+00  0.000000E+00 -1.302510E-12 -4.731672E-14  2.657893E-87
  4.58600000000E+00  0.00000000000E+00 -1.10000000000E+01     75.000  0.000000E+00 -9.013052E-12 -1.299288E-12 -1.840382E-11  1.359700E-11 -3.795535E-11  2.942549E-12  1.379271E-11  2.607698E-14  0.000000E+00 -1.147453E-15  0.000000E+00  0.000000E+00 -1.311621E-12 -5.055509E-14  1.535721E-88
  4.58600000000E+00  0.00000000000E+00 -1.30000000000E+01     75.000  0.000000E+00 -9.018947E-12 -1.295397E-12 -1.839163E-11  1.359568E-11 -3.796999E-11  2.941922E-12  1.379205E-11  2.606953E-14  0.000000E+00 -1.147853E-15  0.000000E+00  0.000000E+00 -1.319405E-12 -5.332673E-14  8.613129E-89
  4.58600000000E+00  0.00000000000E+00 -1.50000000000E+01     75.000  0.000000E+00 -9.024855E-12 -1.292857E-12 -1.838045E-11  1.359557E-11 -3.798636E-11  2.941996E-12  1.379144E-11  2.607284E-14  0.000000E+00 -1.148381E-15  0.000000E+00  0.000000E+00 -1.325291E-12 -5.544679E-14  4.791688E-89
  4.58600000000E+00  0.00000000000E+00 -1.70000000000E+01     75.000  0.000000E+00 -9.031142E-12 -1.291755E-12 -1.837082E-11  1.359710E-11 -3.800563E-11  2.942857E-12  1.379127E-11  2.608787E-14  0.000000E+00 -1.149076E-15  0.000000E+00  0.000000E+00 -1.329091E-12 -5.683290E-14  3.458012E-89
  4.58600000000E+00  0.00000000000E+00 -1.90000000000E+01     75.000  0.000000E+00 -9.037453E-12 -1.292183E-12 -1.836368E-11  1.360056E-11 -3.802781E-11  2.944626E-12  1.379187E-11  2.611499E-14  0.000000E+00 -1.149941E-15  0.000000E+00  0.000000E+00 -1.330969E-12 -5.753946E-14  4.547920E-89
  4.58600000000E+00  0.00000000000E+00 -2.10000000000E+01     75.000  0.000000E+00 -9.042953E-12 -1.294329E-12 -1.835885E-11  1.360559E-11 -3.805118E-11  2.947373E-12  1.379268E-11  2.615485E-14  0.000000E+00 -1.150940E-15  0.000000E+00  0.000000E+00 -1.330843E-12 -5.756417E-14  8.240938E-89
  4.58600000000E+00  0.00000000000E+00 -2.30000000000E+01     75.000  0.000000E+00 -9.058274E-12 -1.295811E-12 -1.834568E-11  1.361318E-11 -3.809534E-11  2.950134E-12  1.379393E-11  2.621509E-14  0.000000E+00 -1.152425E-15  0.000000E+00  0.000000E+00 -1.329392E-12 -5.713697E-14  1.554256E-88
  4.58600000000E+00  0.00000000000E+00 -2.50000000000E+01     75.000  0.000000E+00 -1.016159E-11 -9.956335E-13 -1.713959E-11  1.357059E-11 -3.970428E-11  2.766624E-12  1.374991E-11  2.614063E-14  0.000000E+00 -1.168664E-15  0.000000E+00  0.000000E+00 -1.446253E-12 -9.736083E-14  1.362175E-87
  4.58600000000E+00  0.00000000000E+00 -2.70000000000E+01     75.000  0.000000E+00 -5.758207E-11  3.642499E-13 -1.820953E-12  1.164129E-11 -4.835717E-11 -4.641411E-12  1.192172E-11  2.157191E-14  0.000000E+00 -8.657296E-16 -7.438369E-16  0.000000E+00 -7.713467E-13 -1.581940E-13  0.000000E+00
  4.58600000000E+00  0.00000000000E+00 -2.90000000000E+01     75.000  0.000000E+00 -4.706862E-11  3.493082E-13 -2.944535E-12  1.169976E-11 -4.726631E-11 -4.342874E-12  1.193672E-11  2.198341E-14  0.000000E+00 -8.568495E-16 -6.818706E-16  0.000000E+00  8.815061E-12  0.000000E+00  0.000000E+00
  4.58600000000E+00  0.00000000000E+00 -3.10000000000E+01     75.000  0.000000E+00 -3.004025E-11  2.580445E-13 -6.583404E-12  1.221870E-11 -4.595626E-11 -2.232915E-12  1.243183E-11  2.319322E-14  0.000000E+00 -9.072849E-16 -3.822450E-16  0.000000E+00  0.000000E+00  0.000000E+00  8.443864E-38
  4.58600000000E+00  0.00000000000E+00 -3.30000000000E+01     75.000  0.000000E+00 -4.064992E-11  3.197301E-13 -4.318896E-12  1.173748E-11 -4.527394E-11 -5.075045E-12  1.194452E-11  2.226497E-14  0.000000E+00 -8.102621E-16 -7.684381E-16  0.000000E+00  0.000000E+00  0.000000E+00  0.000000E+00
  4.58600000000E+00  0.00000000000E+00 -3.50000000000E+01     75.000  0.000000E+00 -3.950543E-11  3.134450E-13 -4.538145E-12  1.173907E-11 -4.506336E-11 -4.945666E-12  1.194391E-11  2.228333E-14  0.000000E+00 -8.097754E-16 -7.513976E-16  0.000000E+00  0.000000E+00  0.000000E+00  1.584118E-39
  4.58600000000E+00  0.00000000000E+00 -3.70000000000E+01     75.000  0.000000E+00 -3.763890E-11  3.039210E-13 -4.856134E-12  1.173987E-11 -4.486441E-11 -4.547590E-12  1.194349E-11  2.229320E-14  0.000000E+00 -8.150012E-16 -6.986109E-16  0.000000E+00  0.000000E+00  0.000000E+00  1.301226E-36
  4.58600000000E+00  0.00000000000E+00 -3.90000000000E+01     75.000  0.000000E+00 -3.516213E-11  2.891024E-13 -5.416488E-12  1.183574E-11 -4.486684E-11 -3.987266E-12  1.203994E-11  2.248267E-14  0.000000E+00 -8.293642E-16 -6.239407E-16  0.000000E+00  0.000000E+00  0.000000E+00  2.448305E-35
  6.57100000000E+00  0.00000000000E+00 -1.00000000000E+00     75.000  0.000000E+00 -8.994459E-12 -1.330249E-12 -1.846867E-11  1.361770E-11 -3.792004E-11  2.951048E-12  1.380066E-11  2.621107E-14  0.000000E+00 -1.147347E-15  4.995234-249  0.000000E+00 -1.253883E-12 -2.999531E-14  1.093395E-84
  6.57100000000E+00  0.00000000000E+00 -3.00000000000E+00     75.000  0.000000E+00 -8.995333E-12 -1.323346E-12 -1.845823E-11  1.361249E-11 -3.792057E-11  2.949154E-12  1.379879E-11  2.617595E-14  0.000000E+00 -1.147085E-15  5.301998-270  0.000000E+00 -1.267282E-12 -3.477048E-14  2.962106E-85
  6.57100000000E+00  0.00000000000E+00 -5.00000000000E+00     75.000  0.000000E+00 -8.998071E-12 -1.316725E-12 -1.844580E-11  1.360791E-11 -3.792574E-11  2.947390E-12  1.379708E-11  2.614581E-14  0.000000E+00 -1.147016E-15  1.276382-288  0.000000E+00 -1.279963E-12 -3.929301E-14  2.417201E-86
  6.57100000000E+00  0.00000000000E+00 -7.00000000000E+00     75.000  0.000000E+00 -9.002190E-12 -1.310372E-12 -1.843221E-11  1.360372E-11 -3.793360E-11  2.945618E-12  1.379550E-11  2.611847E-14  0.000000E+00 -1.147061E-15  2.487708-305  0.000000E+00 -1.291687E-12 -4.346621E-14  1.309260E-86
  6.57100000000E+00  0.00000000000E+00 -9.00000000000E+00     75.000  0.000000E+00 -9.007177E-12 -1.304498E-12 -1.841813E-11  1.359995E-11 -3.794308E-11  2.943918E-12  1.379400E-11  2.609459E-14  0.000000E+00 -1.147190E-15  0.000000E+00  0.000000E+00 -1.302194E-12 -4.720247E-14  2.888070E-87
  6.57100000000E+00  0.00000000000E+00 -1.10000000000E+01     75.000  0.000000E+00 -9.012851E-12 -1.299443E-12 -1.840443E-11  1.359709E-11 -3.795477E-11  2.942560E-12  1.379280E-11  2.607712E-14  0.000000E+00 -1.147435E-15  0.000000E+00  0.000000E+00 -1.311260E-12 -5.042306E-14  1.562809E-88
  6.57100000000E+00  0.00000000000E+00 -1.30000000000E+01     75.000  0.000000E+00 -9.018769E-12 -1.295540E-12 -1.839223E-11  1.359574E-11 -3.796937E-11  2.941914E-12  1.379214E-11  2.606949E-14  0.000000E+00 -1.147833E-15  0.000000E+00  0.000000E+00 -1.319016E-12 -5.318348E-14  8.869856E-89
  6.57100000000E+00  0.00000000000E+00 -1.50000000000E+01     75.000  0.000000E+00 -9.024637E-12 -1.292983E-12 -1.838123E-11  1.359568E-11 -3.798578E-11  2.941997E-12  1.379161E-11  2.607263E-14  0.000000E+00 -1.148360E-15  0.000000E+00  0.000000E+00 -1.324984E-12 -5.533032E-14  5.063803E-89
  6.57100000000E+00  0.00000000000E+00 -1.70000000000E+01     75.000  0.000000E+00 -9.030887E-12 -1.291820E-12 -1.837151E-11  1.359710E-11 -3.800473E-11  2.942802E-12  1.379139E-11  2.608701E-14  0.000000E+00 -1.149040E-15  0.000000E+00  0.000000E+00 -1.328818E-12 -5.672867E-14  3.596530E-89
  6.57100000000E+00  0.00000000000E+00 -1.90000000000E+01     75.000  0.000000E+00 -9.037251E-12 -1.292124E-12 -1.836428E-11  1.360044E-11 -3.802676E-11  2.944488E-12  1.379199E-11  2.611308E-14  0.000000E+00 -1.149891E-15  0.000000E+00  0.000000E+00 -1.330806E-12 -5.747070E-14  4.547087E-89
  6.57100000000E+00  0.00000000000E+00 -2.10000000000E+01     75.000  0.000000E+00 -9.042735E-12 -1.293995E-12 -1.835928E-11  1.360515E-11 -3.804943E-11  2.947038E-12  1.379277E-11  2.615031E-14  0.000000E+00 -1.150848E-15  0.000000E+00  0.000000E+00 -1.330933E-12 -5.757927E-14  7.958664E-89
  6.57100000000E+00  0.00000000000E+00 -2.30000000000E+01     75.000  0.000000E+00 -9.049828E-12 -1.297252E-12 -1.835471E-11  1.361209E-11 -3.807868E-11  2.950544E-12  1.379411E-11  2.620387E-14  0.000000E+00 -1.152068E-15  0.000000E+00  0.000000E+00 -1.329182E-12 -5.704289E-14  1.429073E-88
  6.57100000000E+00  0.00000000000E+00 -2.50000000000E+01     75.000  0.000000E+00 -9.426442E-12 -1.191698E-12 -1.793462E-11  1.360520E-11 -3.867501E-11  2.894868E-12  1.378148E-11  2.623112E-14  0.000000E+00 -1.159851E-15  0.000000E+00  0.000000E+00 -1.367329E-12 -7.017630E-14  2.518346E-88
  6.57100000000E+00  0.00000000000E+00 -2.70000000000E+01     75.000  0.000000E+00 -4.172218E-11  3.527977E-13 -3.429813E-12  1.222196E-11 -5.032288E-11 -2.076187E-12  1.249913E-11  2.275952E-14  0.000000E+00 -1.002717E-15 -3.840013E-16  0.000000E+00 -2.298487E-12 -5.878104E-13  1.304313E-93
  6.57100000000E+00  0.00000000000E+00 -2.90000000000E+01     75.000  0.000000E+00 -5.248149E-11  3.584903E-13 -2.322399E-12  1.167833E-11 -4.785552E-11 -4.608205E-12  1.193165E-11  2.182911E-14  0.000000E+00 -8.606403E-16 -7.263560E-16  0.000000E+00 -2.314661E-13  0.000000E+00  0.000000E+00
  6.57100000000E+00  0.00000000000E+00 -3.10000000000E+01     75.000  0.000000E+00 -4.825674E-11  3.496919E-13 -2.937976E-12  1.171189E-11 -4.697458E-11 -4.970937E-12  1.193968E-11  2.207082E-14  0.000000E+00 -8.389536E-16 -7.623364E-16  0.000000E+00  0.000000E+00  0.000000E+00  0.000000E+00
  6.57100000000E+00  0.00000000000E+00 -3.30000000000E+01     75.000  0.000000E+00 -3.887412E-11  3.187957E-13 -4.424947E-12  1.178503E-11 -4.585997E-11 -4.073401E-12  1.199777E-11  2.232159E-14  0.000000E+00 -8.425972E-16 -6.368489E-16  0.000000E+00  0.000000E+00  0.000000E+00  1.877607E-34
  6.57100000000E+00  0.00000000000E+00 -3.50000000000E+01     75.000  0.000000E+00 -4.215744E-11  3.291390E-13 -3.954549E-12  1.173258E-11 -4.576498E-11 -4.933038E-12  1.194293E-11  2.223225E-14  0.000000E+00 -8.203348E-16 -7.504049E-16  0.000000E+00  0.000000E+00  0.000000E+00  1.626513E-30
  6.57100000000E+00  0.00000000000E+00 -3.70000000000E+01     75.000  0.000000E+00 -4.180296E-11  3.277730E-13 -4.009300E-12  1.173312E-11 -4.572613E-11 -4.877444E-12  1.194260E-11  2.223928E-14  0.000000E+00 -8.209237E-16 -7.430078E-16  0.000000E+00  0.000000E+00  0.000000E+00  6.650400E-30
  6.57100000000E+00  0.00000000000E+00 -3.90000000000E+01     75.000  0.000000E+00 -4.216039E-11  3.291171E-13 -3.954004E-12  1.173294E-11 -4.576854E-11 -4.932084E-12  1.194236E-11  2.223927E-14  0.000000E+00 -8.204326E-16 -7.502541E-16  0.000000E+00  0.000000E+00  0.000000E+00  1.577026E-30